# vtk DataFile Version 3.0
vtk output
ASCII
DATASET POLYDATA
POINTS 12545 float
8.18068 61.2871 52.143 8.17264 61.2923 52.1088 8.16222 61.296 52.0706 
8.12068 61.2988 51.9698 8.12027 61.2988 51.9686 8.10351 61.2984 51.9198 
8.10345 61.2984 51.9197 8.09816 61.2983 51.906 8.08373 61.2943 51.8781 
8.00264 61.2415 51.5789 7.98414 61.2337 51.5545 7.92064 61.2167 51.3455 
7.91391 61.2109 51.3238 7.85372 61.2046 51.1583 7.77165 61.2528 50.9641 
7.77147 61.2529 50.9638 7.76029 61.2579 50.9449 7.74428 61.2591 50.9139 
7.6918 61.2907 50.7637 7.69177 61.2907 50.7637 7.6902 61.2905 50.7602 
7.60841 61.3499 50.5158 7.60645 61.3503 50.5112 7.59529 61.3564 50.4829 
7.53777 61.4045 50.3054 7.53291 61.4112 50.289 7.53263 61.4118 50.2873 
7.50362 61.4242 50.1893 7.47265 61.4723 50.0328 7.4724 61.4724 50.0322 
7.44143 61.483 49.9598 7.41262 61.5016 49.8962 7.37565 61.5432 49.8107 
7.33559 61.6154 49.6415 7.31873 61.6387 49.5994 7.27727 61.704 49.4265 
7.27315 61.7101 49.4158 7.241 61.7356 49.3385 7.21073 61.7529 49.2685 
7.21034 61.7534 49.2674 7.17195 61.818 49.1261 7.14581 61.8353 49.0887 
7.09697 61.923 48.9367 7.08282 61.9414 48.8951 7.06732 61.9679 48.8546 
7.0116 62.0524 48.7165 7.00454 62.0941 48.6511 6.98914 62.1468 48.5534 
6.98285 62.1638 48.5286 6.98212 62.1664 48.5253 6.98036 62.1744 48.5154 
6.98036 62.1744 48.5154 6.97831 62.1843 48.5029 6.97754 62.1872 48.4983 
6.97608 62.1936 48.4899 6.97481 62.2038 48.4687 6.91815 62.367 48.2524 
6.91285 62.377 48.2434 6.91279 62.3771 48.2433 6.90833 62.382 48.2358 
6.89788 62.4048 48.201 6.83915 62.5168 48.076 6.83632 62.5218 48.0703 
6.78129 62.6879 47.8519 6.78124 62.689 47.8511 6.75273 62.8099 47.6959 
6.73838 62.8471 47.6436 6.73658 62.8527 47.6388 6.73147 62.8846 47.6128 
6.70665 62.9925 47.4726 6.70377 63.0214 47.4488 6.69449 63.0963 47.3903 
6.67956 63.1716 47.2927 6.67857 63.2054 47.2675 6.67751 63.2644 47.2204 
6.66246 63.3557 47.1061 6.66068 63.379 47.0879 6.66725 63.4502 47.0317 
6.66039 63.5092 46.9625 6.65571 63.6454 46.8534 6.64831 63.6945 46.7848 
6.64835 63.6966 46.7817 6.65888 63.8645 46.6349 6.6563 63.9632 46.5496 
6.65737 64.0301 46.4796 6.65628 64.0535 46.4471 6.65475 64.117 46.3928 
6.6594 64.1678 46.3495 6.66471 64.2126 46.2938 6.66698 64.2563 46.2545 
6.66788 64.2735 46.2405 6.65421 64.4121 46.0777 6.65533 64.4954 46.0124 
6.6545 64.5269 45.9721 6.66674 64.5829 45.8959 6.66692 64.5846 45.8945 
6.66692 64.6735 45.8228 6.64647 64.7815 45.6879 6.64647 64.7817 45.6877 
6.64652 64.8334 45.6434 6.65795 64.9053 45.5852 6.65365 64.9421 45.5398 
6.64505 65.0251 45.4609 6.64503 65.0289 45.4569 6.64253 65.1323 45.3665 
6.64222 65.1354 45.3643 6.63649 65.1917 45.3237 6.63649 65.1922 45.3232 
6.63745 65.301 45.2045 6.63749 65.3011 45.2044 6.64687 65.3356 45.1788 
6.64955 65.3564 45.1634 6.65867 65.3847 45.1424 6.66697 65.4504 45.0895 
6.66898 65.6297 44.9236 6.66984 65.6389 44.9196 6.66825 65.6605 44.9031 
6.66826 65.661 44.9026 6.67129 65.7728 44.7695 6.67033 65.7791 44.7601 
6.67034 65.7793 44.7599 6.67296 65.8227 44.7078 6.67238 65.8326 44.6936 
6.67367 65.8737 44.623 6.67253 65.8853 44.5924 6.67521 65.903 44.5279 
6.67094 65.9196 44.4718 6.66987 65.9511 44.373 6.67034 65.9761 44.273 
6.66218 65.9855 44.1067 6.66093 65.9897 44.0715 6.65115 65.9869 43.967 
6.65043 65.985 43.9384 6.64429 65.9803 43.84 6.64435 65.9798 43.8357 
6.63788 65.9677 43.6482 6.63366 65.9588 43.5379 6.63367 65.9588 43.5379 
6.63377 65.9588 43.5355 6.63387 65.9578 43.5161 6.61876 65.9343 43.3097 
6.61802 65.9224 43.2249 6.61055 65.905 43.1365 6.60163 65.8931 43.0226 
6.6012 65.887 42.9744 6.60128 65.8817 42.9509 6.59141 65.8667 42.8522 
6.58388 65.8609 42.8022 6.5831 65.8588 42.7894 6.57916 65.8497 42.7147 
6.57142 65.838 42.6161 6.55525 65.8112 42.5071 6.5513 65.8068 42.4931 
6.53128 65.7626 42.3458 6.52941 65.7602 42.3368 6.49322 65.7268 42.2173 
6.49321 65.7267 42.2173 6.49022 65.7216 42.2058 6.4692 65.6756 42.0701 
6.46369 65.6633 42.0426 6.43755 65.6269 41.9138 6.43491 65.6214 41.8958 
6.4166 65.5644 41.7798 6.41277 65.5557 41.7593 6.40591 65.5329 41.7049 
6.39553 65.5122 41.6564 6.37569 65.4544 41.5406 6.3627 65.4379 41.4901 
6.33003 65.4029 41.3946 6.31271 65.3656 41.3082 6.30264 65.3363 41.234 
6.28561 65.3 41.1568 6.27196 65.275 41.1075 6.25431 65.2169 41.0071 
6.24623 65.205 40.9819 6.21282 65.1497 40.8481 6.2047 65.1338 40.8118 
6.16929 65.0608 40.6655 6.12779 64.9977 40.5581 6.09909 64.9289 40.4281 
6.05224 64.836 40.286 6.04846 64.8256 40.2682 6.03653 64.8033 40.2228 
6.02287 64.7833 40.1809 6.01241 64.7622 40.1388 5.99487 64.7192 40.0659 
5.99485 64.7192 40.0658 5.98801 64.7069 40.0448 5.97665 64.6728 39.9798 
5.96517 64.6412 39.9292 5.9496 64.6058 39.8698 5.94509 64.5869 39.8413 
5.94384 64.5779 39.8284 5.93933 64.5564 39.7937 5.92669 64.4896 39.6826 
5.90843 64.3743 39.4797 5.90761 64.3725 39.4767 5.90293 64.3414 39.4233 
5.89257 64.2116 39.2375 5.8848 64.1564 39.1532 5.88476 64.1562 39.1529 
5.87992 64.1333 39.1142 5.87458 64.1152 39.0918 5.8736 64.1059 39.0781 
5.81672 63.9549 38.9098 5.81017 63.9319 38.8812 5.76382 63.8362 38.7553 
5.7638 63.8361 38.7552 5.76063 63.8254 38.7408 5.72765 63.7545 38.6325 
5.69943 63.6934 38.5508 5.68055 63.6233 38.4619 5.67492 63.5937 38.4244 
5.64352 63.4587 38.2263 5.64271 63.4524 38.2151 5.63213 63.3365 38.063 
5.61593 63.2779 37.9613 5.60026 63.1633 37.8001 5.59801 63.1487 37.7847 
5.58973 63.1048 37.7378 5.57424 63.051 37.6664 5.56062 62.9244 37.532 
5.55688 62.8481 37.4446 5.55417 62.7904 37.388 5.52823 62.6813 37.2475 
5.52823 62.6813 37.2475 5.5278 62.6807 37.2467 5.46258 62.4542 37.005 
5.45667 62.4457 36.9941 5.40606 62.2752 36.7965 5.40493 62.2317 36.753 
5.37567 62.0751 36.5783 5.38461 61.99 36.4931 5.38549 61.9384 36.4309 
5.37363 61.7877 36.2948 5.3722 61.7765 36.2824 5.38898 61.6504 36.1448 
5.39285 61.6134 36.1171 5.39709 61.4692 35.9661 5.41112 61.3341 35.8582 
5.44523 61.1816 35.6994 5.4589 61.0756 35.5836 5.50013 60.9752 35.4714 
5.5002 60.975 35.4711 5.50925 60.9492 35.4356 5.51916 60.8977 35.3767 
5.51954 60.892 35.3703 5.54588 60.7314 35.193 5.54496 60.7033 35.1611 
5.56317 60.5799 35.0327 5.56393 60.5594 35.0078 5.58273 60.4275 34.8641 
5.58441 60.4039 34.8367 5.58763 60.3884 34.8167 5.60901 60.2573 34.6723 
5.62703 60.1589 34.5562 5.63094 60.1319 34.5264 5.64713 60.0781 34.4699 
5.68521 59.9871 34.3766 5.6989 59.9521 34.3383 5.75824 59.7807 34.1693 
5.77907 59.7353 34.1107 5.77913 59.7351 34.1105 5.79426 59.6971 34.0596 
5.80455 59.6729 34.0331 5.87953 59.5562 33.8856 5.92851 59.4641 33.7763 
5.97022 59.4015 33.697 6.02272 59.3039 33.5572 6.02844 59.2953 33.5437 
6.05131 59.2563 33.4897 6.06227 59.2315 33.4526 6.13028 59.1491 33.3136 
6.14217 59.1353 33.2916 6.16875 59.1129 33.2519 6.19506 59.0892 33.2162 
6.27866 58.9733 33.0876 6.29551 58.9558 33.0651 6.34892 58.8706 32.987 
6.35293 58.8619 32.9774 6.4299 58.7498 32.8519 6.43003 58.7496 32.8517 
6.44029 58.7344 32.8378 6.5041 58.6355 32.7275 6.61334 58.5019 32.6004 
6.66695 58.4349 32.5119 6.72247 58.3899 32.4482 6.83307 58.2671 32.2872 
6.882 58.2023 32.2257 6.91796 58.1604 32.1691 7.04725 58.0647 32.025 
7.07014 58.0425 31.9851 7.19596 57.9296 31.84 7.23254 57.8965 31.7935 
7.27463 57.8547 31.7449 7.33965 57.7972 31.6686 7.41752 57.7362 31.5565 
7.4526 57.708 31.5172 7.47227 57.6895 31.4894 7.55273 57.6321 31.399 
7.55452 57.6302 31.3969 7.61664 57.5641 31.3262 7.62525 57.5555 31.3181 
7.66079 57.5242 31.2846 7.73163 57.4721 31.2314 7.75731 57.4511 31.211 
7.87703 57.3743 31.113 7.91976 57.3429 31.0665 7.99464 57.2911 30.984 
8.10384 57.1956 30.8632 8.13797 57.1735 30.8344 8.28597 57.0919 30.6985 
8.33563 57.0748 30.6638 8.43766 57.0262 30.5885 8.51501 56.989 30.523 
8.56814 56.9635 30.4655 8.59515 56.9473 30.4431 8.63066 56.9252 30.4117 
8.63091 56.9249 30.4114 8.64629 56.9107 30.3966 8.74883 56.8365 30.2844 
8.76737 56.8216 30.2611 8.81958 56.7805 30.2079 8.87829 56.7355 30.1583 
8.89644 56.72 30.1423 8.9504 56.6836 30.0906 9.07308 56.6018 29.9716 
9.11798 56.5754 29.9401 9.19334 56.5225 29.879 9.20417 56.5161 29.8723 
9.32561 56.4677 29.7799 9.41935 56.4206 29.7033 9.44001 56.4114 29.6862 
9.4722 56.3892 29.658 9.59686 56.3261 29.5662 9.60322 56.3218 29.5604 
9.66316 56.2904 29.5208 9.75293 56.229 29.4662 9.83254 56.1761 29.4293 
9.9464 56.1004 29.3367 9.99407 56.08 29.3064 10.2035 55.9806 29.1663 
10.2433 55.9658 29.1349 10.3236 55.9229 29.0831 10.4158 55.8676 29.0295 
10.4181 55.8662 29.0283 10.5774 55.7696 28.9058 10.6114 55.7452 28.8862 
10.7201 55.665 28.7897 10.7686 55.6364 28.755 10.8493 55.5679 28.6938 
11.04 55.4466 28.5446 11.0573 55.4361 28.5329 11.0847 55.4155 28.5171 
11.1655 55.3489 28.4512 11.1656 55.3489 28.4512 11.1771 55.3417 28.4445 
11.2947 55.2542 28.3796 11.3223 55.2297 28.3559 11.3465 55.2064 28.3334 
11.5239 55.0458 28.1956 11.5392 55.0301 28.1872 11.5956 54.976 28.1492 
11.6594 54.9109 28.1091 11.754 54.8305 28.053 11.8684 54.7324 27.9931 
11.8816 54.7234 27.9872 11.9655 54.6602 27.9374 12.0444 54.6001 27.8794 
12.0457 54.5993 27.8787 12.0683 54.5861 27.8666 12.1899 54.5025 27.7857 
12.1991 54.4947 27.7794 12.2058 54.4895 27.7758 12.257 54.4522 27.7398 
12.3889 54.3465 27.6516 12.4906 54.2397 27.5675 12.5598 54.1825 27.5273 
12.6534 54.0803 27.4533 12.6535 54.0803 27.4532 12.6572 54.0771 27.4517 
12.8112 53.9376 27.3617 12.8293 53.9223 27.3525 12.8735 53.8885 27.3324 
12.9482 53.8226 27.2881 12.9897 53.7854 27.2544 12.9941 53.7819 27.2516 
13.1239 53.6573 27.1439 13.1947 53.588 27.0881 13.2288 53.5534 27.0578 
13.2407 53.5385 27.0455 13.2408 53.5384 27.0454 13.2595 53.5121 27.0244 
13.2763 53.4911 27.0082 13.2825 53.4843 27.0022 13.3096 53.4615 26.9815 
13.4198 53.345 26.8749 13.4821 53.2641 26.8022 13.5016 53.2394 26.7843 
13.5114 53.2223 26.7729 13.5397 53.1811 26.7407 13.642 53.0614 26.6179 
13.6466 53.0577 26.6126 13.7624 52.9375 26.5137 13.7688 52.9256 26.5025 
13.8629 52.8202 26.3948 13.8753 52.8107 26.3847 13.9756 52.7157 26.3208 
14.0162 52.666 26.291 14.0255 52.6574 26.2848 14.0829 52.5958 26.2524 
[...]
POINT_DATA 12545
FIELD FieldData 3
MaximumInscribedSphereRadius 1 12545 double
0.477947 0.473829 0.46981 0.461836 0.46188 0.463657 0.463673 0.464987 0.464742 
0.4529 0.458714 0.460378 0.459218 0.452222 0.465078 0.465161 0.470227 0.474944 
0.495134 0.495141 0.495502 0.514426 0.514458 0.511952 0.520215 0.522272 0.522508 
0.523504 0.527601 0.52761 0.528719 0.5327 0.535599 0.515227 0.515545 0.520249 
0.520162 0.512844 0.510558 0.510497 0.510782 0.505106 0.506873 0.509971 0.50965 
0.511936 0.517708 0.523453 0.526103 0.526321 0.526767 0.526771 0.527871 0.527935 
0.527372 0.522285 0.518782 0.521965 0.521964 0.521899 0.51655 0.514806 0.512645 
0.484441 0.48432 0.46914 0.466847 0.46685 0.466484 0.469275 0.471198 0.476734 
0.48521 0.486743 0.487798 0.493976 0.495882 0.499965 0.501167 0.503507 0.503022 
0.502966 0.511777 0.502611 0.505274 0.506138 0.504855 0.503749 0.504789 0.500255 
0.4979 0.493584 0.496087 0.497515 0.497245 0.497252 0.497637 0.506885 0.506908 
0.512636 0.528978 0.532747 0.543828 0.544563 0.565846 0.56671 0.582453 0.582586 
0.615873 0.615939 0.632172 0.641302 0.650604 0.669874 0.750779 0.755322 0.766472 
0.766686 0.819963 0.823766 0.823843 0.842981 0.847519 0.865562 0.870299 0.875587 
0.878236 0.887958 0.888653 0.88017 0.880024 0.871551 0.868157 0.855668 0.855104 
0.839089 0.836809 0.836809 0.836817 0.836112 0.817895 0.819843 0.815633 0.816273 
0.817645 0.817661 0.815348 0.815525 0.81498 0.813158 0.810244 0.802411 0.800197 
0.78302 0.78174 0.769586 0.769582 0.768727 0.763645 0.761771 0.753776 0.753461 
0.755955 0.755918 0.755474 0.756839 0.762077 0.764534 0.769305 0.775879 0.782241 
0.782626 0.782407 0.785322 0.786484 0.790756 0.791115 0.792635 0.786242 0.790035 
0.784582 0.785052 0.786056 0.786549 0.788701 0.792511 0.79252 0.79473 0.800701 
0.802551 0.804078 0.804497 0.804665 0.805324 0.809874 0.811708 0.811707 0.805891 
0.803126 0.799865 0.799868 0.800197 0.797079 0.793935 0.769915 0.767363 0.757566 
0.757561 0.756925 0.752817 0.75048 0.752333 0.756143 0.765795 0.76654 0.771893 
0.772288 0.775926 0.775358 0.775573 0.774494 0.775543 0.775627 0.77655 0.781715 
0.781715 0.781705 0.774029 0.774108 0.76653 0.762627 0.760116 0.76337 0.761323 
0.756536 0.757145 0.758021 0.757051 0.753938 0.757757 0.763514 0.766963 0.777589 
0.77762 0.781541 0.786555 0.787 0.791501 0.793381 0.800668 0.800594 0.803936 
0.803241 0.80166 0.801039 0.794841 0.794712 0.792592 0.792515 0.78828 0.785033 
0.786336 0.786354 0.790866 0.794075 0.800231 0.793237 0.796116 0.797924 0.798163 
0.799282 0.798016 0.793145 0.794925 0.79693 0.798299 0.804758 0.806005 0.801111 
0.799669 0.779474 0.779462 0.778433 0.773631 0.769782 0.764136 0.757589 0.752697 
0.757751 0.751818 0.740574 0.736314 0.72536 0.724657 0.720949 0.719367 0.72557 
0.729086 0.730088 0.734997 0.735127 0.739616 0.740858 0.745884 0.749162 0.750989 
0.742785 0.743647 0.740538 0.734992 0.731902 0.729486 0.732599 0.735503 0.740316 
0.747417 0.747868 0.749626 0.749608 0.748517 0.7479 0.74982 0.753996 0.762429 
0.765336 0.767344 0.765218 0.767694 0.769667 0.769239 0.76742 0.767695 0.769683 
0.768208 0.767515 0.767569 0.762555 0.760594 0.757356 0.752473 0.749103 0.755964 
0.760057 0.761199 0.763959 0.764014 0.77554 0.77861 0.782323 0.77916 0.770137 
0.775598 0.77926 0.782005 0.787591 0.78759 0.78736 0.789127 0.789041 0.789623 
0.796793 0.79689 0.795577 0.787945 0.773317 0.765792 0.765201 0.763671 0.765635 
0.765613 0.765233 0.772539 0.773048 0.773172 0.76942 0.76546 0.762778 0.764758 
0.763726 0.763723 0.763434 0.761222 0.759839 0.756303 0.750834 0.746719 0.74612 
0.74198 0.743668 0.746016 0.747361 0.747375 0.750973 0.75367 0.754385 0.753982 
0.756734 0.764945 0.767499 0.768694 0.774497 0.798344 0.799456 0.81188 0.814275 
0.825807 0.826831 0.826853 0.826575 0.826529 0.822594 0.820593 0.816437 0.813924 
0.81077 0.811884 0.809966 0.805768 0.794043 0.788641 0.790122 0.7867 0.78958 
0.788343 0.783419 0.773551 0.773204 0.764043 0.765241 0.759391 0.755369 0.75299 
0.743897 0.732908 0.73106 0.729122 0.733946 0.728462 0.721631 0.721398 0.711799 
0.709419 0.710828 0.710782 0.715691 0.725729 0.72811 0.73549 0.741118 0.748681 
0.74873 0.760753 0.761089 0.776647 0.786032 0.79521 0.802925 0.803246 0.818968 
0.83679 0.838006 0.852009 0.866419 0.871755 0.892405 0.894674 0.905168 0.905197 
0.908845 0.908839 0.907437 0.899835 0.896523 0.892803 0.8764 0.876334 0.868968 
0.853394 0.843933 0.818512 0.817058 0.778557 0.778191 0.756343 0.75938 0.762769 
0.766091 0.766195 0.767715 0.769963 0.781535 0.786807 0.787147 0.795312 0.795327 
0.799244 0.799424 0.808228 0.809572 0.809584 0.81257 0.813391 0.813455 0.818537 
0.818853 0.824886 0.830761 0.830286 0.83028 0.816288 0.816286 0.815863 0.811539 
0.811358 0.79307 0.79308 0.794305 0.794054 0.791289 0.777806 0.765325 0.751106 
0.743877 0.742312 0.742479 0.73297 0.729518 0.728024 0.712955 0.697592 0.683807 
0.689946 0.690532 0.686173 0.677806 0.665937 0.659289 0.657498 0.647155 0.654884 
0.675617 0.676935 0.68269 0.729176 0.733069 0.741638 0.801426 0.917597 0.938333 
0.968908 0.994733 1.06983 1.06985 1.07428 1.17737 1.19113 1.23218 1.25299 
1.27407 1.32677 1.33241 1.33266 1.33673 1.33498 1.33424 1.33447 1.33685 
1.34802 1.35161 1.35163 1.35071 1.3513 1.35119 1.34459 1.32866 1.32864 
1.3273 1.30898 1.30878 1.28815 1.28428 1.26738 1.26529 1.24881 1.24745 
1.23768 1.23371 1.23335 1.23095 1.2287 1.22562 1.22851 1.23012 1.23018 
1.23243 1.23259 1.23355 1.23449 1.24019 1.24028 1.24094 1.24275 1.24254 
1.24119 1.24053 1.23932 1.2362 1.23358 1.23284 1.23284 1.23269 1.23265 
1.22924 1.23161 1.22754 1.22784 1.22894 1.23008 1.22894 1.23797 1.23814 
1.23889 1.23889 1.23888 1.24538 1.2489 1.26354 1.26387 1.27438 1.27613 
1.28739 1.29567 1.29786 1.30273 1.32464 1.32467 1.33276 1.33277 1.33493 
1.33502 1.35801 1.37359 1.38561 1.40085 1.40434 1.40622 1.40873 1.40874 
1.41121 1.41192 1.42888 1.43135 1.43352 1.43419 1.46686 1.46962 1.47515 
1.47692 1.5056 1.50637 1.53323 1.53858 1.54664 1.56627 1.57107 1.57218 
1.57347 1.57601 1.5768 1.57683 1.57942 1.57971 1.58115 1.58208 1.58187 
1.57808 1.57763 1.58036 1.5836 1.58361 1.58504 1.58696 1.59236 1.5924 
1.59624 1.59956 1.60009 1.59423 1.59047 1.5863 1.5859 1.58314 1.58223 
1.57941 1.57889 1.57972 1.58369 1.58417 1.58221 1.57375 1.57342 1.56514 
1.55416 1.55012 1.53543 1.53462 1.53085 1.51989 1.50906 1.5076 1.50459 
1.50406 1.50182 1.50315 1.50472 1.50911 1.51146 1.51239 1.51358 1.51562 
1.5157 1.5158 1.5178 1.51886 1.51744 1.50779 1.50362 1.49787 1.49087 
1.482 1.47291 1.46048 1.45242 1.44964 1.44537 1.44381 1.44445 1.44702 
1.44704 1.44868 1.44868 1.44885 1.45285 1.45661 1.46123 1.46425 1.46892 
1.47719 1.48192 1.48688 1.49524 1.50302 1.5063 1.50881 1.50913 1.51503 
1.51727 1.51877 1.52482 1.52486 1.53401 1.53404 1.53675 1.53682 1.54243 
1.54245 1.54841 1.54938 1.54944 1.55321 1.55479 1.56346 1.56598 1.56806 
1.56858 1.5574 1.54195 1.54872 1.53979 1.5389 1.53293 1.52798 1.52819 
1.52852 1.53315 1.53527 1.53794 1.53799 1.5455 1.55062 1.55117 1.57343 
1.58562 1.66013 1.66688 1.73555 1.736 1.76408 1.76422 1.78275 1.78332 
1.81847 1.81854 1.83691 1.85067 1.85811 1.88051 1.92798 1.92843 1.96615 
1.97339 1.97313 1.97753 1.97803 1.98262 1.99107 1.99732 1.99754 2.00294 
2.0128 2.01281 2.01724 2.03045 2.0305 2.03683 2.05309 2.0574 2.07524 
2.07898 2.08893 2.08915 2.09691 2.09742 2.10672 2.1088 2.11501 2.11715 
2.12178 2.12459 2.12975 2.13044 2.12668 2.12447 2.12225 2.11113 2.10891 
2.08462 2.07184 2.06751 2.05612 2.04506 2.04501 2.03869 2.01414 1.99523 
1.98743 1.98627 1.98245 1.98257 1.98272 1.98214 1.97075 1.97075 1.97072 
1.96267 1.95713 1.94644 1.9435 1.94343 1.94136 1.93004 1.91736 1.90886 
1.89196 1.86303 1.84145 1.83875 1.82959 1.82139 1.80847 1.80621 1.79793 
1.79453 1.78415 1.78387 1.78166 1.78184 1.77846 1.7786 1.77923 1.77841 
1.77842 1.78007 1.78007 1.78066 1.78225 1.77853 1.782 1.78286 1.78345 
1.78709 1.78904 1.78861 1.79235 1.79916 1.8001 1.80413 1.80418 1.81058 
1.81497 1.82638 1.83306 1.83743 1.84333 1.86142 1.88324 1.88357 1.89356 
1.9276 1.92767 1.94506 1.94532 1.96709 1.97906 1.97909 1.98677 1.9872 
2.0047 2.0191 2.0192 2.03079 2.03098 2.05669 2.0567 2.06001 2.06371 
2.07815 2.08609 2.0863 2.09955 2.0996 2.1102 2.11064 2.11702 2.11733 
2.12987 2.12992 2.14319 2.14543 2.15777 2.15781 2.16161 2.16389 2.16762 
2.19233 2.19491 2.19761 2.20419 2.2057 2.20909 2.21923 2.22107 2.22598 
2.22599 2.22713 2.23029 2.23576 2.23851 2.24159 2.24161 2.24585 2.24672 
2.2527 2.25276 2.26857 2.26932 2.27111 2.27548 2.27567 2.29108 2.29112 
2.29322 2.29531 2.29633 2.29661 2.30836 2.31854 2.31856 2.31935 2.31999 
2.31982 2.31808 2.31808 2.31807 2.31637 2.31637 2.31353 2.31431 2.31431 
2.31461 2.31102 2.31266 2.32008 2.32026 2.32512 2.32565 2.32601 2.32801 
2.33345 2.33966 2.33979 2.35583 2.35816 2.36079 2.36087 2.3728 2.3728 
2.3734 2.37745 2.37784 2.37839 2.38362 2.38371 2.3943 2.39495 2.40625 
2.40866 2.41414 2.41463 2.42632 2.4402 2.44588 2.44599 2.4602 2.47001 
2.47409 2.49429 2.49485 2.50709 2.50866 2.51247 2.51658 2.51661 2.5184 
2.52025 2.52438 2.52448 2.53245 2.54038 2.54191 2.54214 2.54776 2.5505 
2.56781 2.57253 2.58527 2.5853 2.59423 2.59437 2.59746 2.59747 2.60231 
2.60348 2.60548 2.61529 2.62091 2.62996 2.63032 2.63172 2.63256 2.63113 
2.6221 2.61178 2.60787 2.60377 2.60117 2.59754 2.57909 2.56952 2.51507 
2.5117 2.50604 2.50058 2.49887 2.48745 2.48336 2.46734 2.4382 2.43243 
2.42585 2.40324 2.40168 2.38057 2.37876 2.34912 2.33309 2.32392 2.32294 
2.32102 2.32046 2.31943 2.31738 2.31638 2.31272 2.30853 2.30623 2.3059 
2.30564 2.30644 2.30647 2.30367 2.30628 2.30831 2.31832 2.31895 2.32679 
2.33173 2.34275 2.35001 2.34979 2.35048 2.35091 2.3504 2.34919 2.33819 
2.32877 2.32113 2.30347 2.30342 2.29756 2.27619 2.27111 2.25475 2.25474 
2.25368 2.24545 2.24389 2.24248 2.24937 2.25012 2.25406 2.26068 2.26082 
2.26588 2.27014 2.27185 2.28018 2.28211 2.28888 2.29457 2.30066 2.30076 
2.30907 2.31114 2.31118 2.31357 2.31359 2.31715 2.3179 2.32825 2.33056 
2.33534 2.33915 2.3441 2.34548 2.34919 2.35156 2.35409 2.3541 2.35583 
2.35823 2.35825 2.36349 2.36484 2.37121 2.37355 2.37466 2.37469 2.37698 
2.37761 2.3786 2.3786 2.37873 2.3794 2.38609 2.38836 2.3889 2.3889 
2.3863 2.38681 2.38666 2.3796 2.37736 2.37535 2.37289 2.36778 2.3669 
2.36385 2.36347 2.36142 2.36142 2.36074 2.3519 2.34657 2.3377 2.33609 
2.3355 2.32749 2.32671 2.32226 2.30727 2.29231 2.28597 2.28574 2.25413 
2.23752 2.23509 2.23287 2.21901 2.21778 2.2169 2.21426 2.2126 2.21295 
2.21433 2.21507 2.21555 2.21499 2.21722 2.21867 2.22376 2.23296 2.23846 
2.24638 2.24648 2.25124 2.26322 2.2741 2.28752 2.28763 2.28905 2.29608 
2.29875 2.30229 2.30842 2.32111 2.32113 2.32633 2.32654 2.35291 2.35291 
2.35403 2.34237 2.34452 2.34541 2.3474 2.34801 2.35255 2.35258 2.35918 
2.37665 2.39147 2.4046 2.4089 2.40935 2.43134 2.43588 2.47278 2.47749 
2.48424 2.50102 2.50492 2.50499 2.507 2.50827 2.51155 2.51212 2.52841 
2.55091 2.55092 2.55137 2.5533 2.56679 2.57666 2.57671 2.58375 2.59116 
2.59884 2.62632 2.62639 2.6342 2.64998 2.66273 2.67293 2.67741 2.68105 
2.69288 2.69651 2.69858 2.69858 2.69988 2.7032 2.70894 2.70935 2.71024 
2.71084 2.71085 2.71334 2.71399 2.71419 2.71455 2.71389 2.71368 2.71329 
2.71116 2.71013 2.70887 2.70372 2.70148 2.69956 2.69956 2.69931 2.69602 
2.68769 2.67308 2.67308 2.67299 2.6555 2.65549 2.65361 2.63489 2.62541 
2.61253 2.60193 2.60192 2.60045 2.58923 2.58346 2.56526 2.56526 2.56471 
2.55167 2.52575 2.52574 2.5248 2.50906 2.48823 2.47978 2.46406 2.46183 
2.44722 2.44676 2.44096 2.44164 2.44392 2.45281 2.45487 2.46431 2.46783 
2.47415 2.48206 2.48214 2.48686 2.49352 2.50205 2.50261 2.50491 2.50899 
2.50904 2.50898 2.50479 2.49215 2.48946 2.47317 2.47164 2.45724 2.45177 
2.44164 2.43571 2.43073 2.43072 2.42815 2.41789 2.41506 2.41525 2.41581 
2.41584 2.42259 2.4226 2.42446 2.42907 2.42989 2.44412 2.44772 2.44827 
2.45156 2.46734 2.46761 2.48117 2.4848 2.48699 2.49077 2.50877 2.5089 
2.51176 2.51315 2.51318 2.51964 2.5249 2.52491 2.52718 2.53418 2.53836 
2.53853 2.54074 2.5427 2.54324 2.54363 2.54469 2.54211 2.54146 2.53987 
2.53639 2.53614 2.53614 2.5361 2.52723 2.52723 2.52715 2.52245 2.5195 
2.51286 2.51196 2.50415 2.4955 2.49546 2.49398 2.48608 2.48404 2.47982 
2.47916 2.48049 2.48088 2.48111 2.48264 2.4835 2.48364 2.48257 2.47926 
2.47901 2.47848 2.47737 2.47211 2.46872 2.46453 2.46275 2.46267 2.46254 
2.46153 2.46088 2.4555 2.44253 2.43991 2.43706 2.42622 2.42193 2.41725 
2.41638 2.41189 2.41141 2.41141 2.41166 2.41503 2.41855 2.42194 2.42277 
2.42285 2.42394 2.42638 2.42781 2.42741 2.42681 2.42306 2.41847 2.41846 
2.41619 2.40289 2.40115 2.39179 2.39084 2.3934 2.39324 2.39181 2.37991 
2.37066 2.36088 2.35611 2.3537 2.34983 2.34774 2.3468 2.34666 2.34328 
2.33722 2.33448 2.33474 2.3318 2.33284 2.33714 2.3407 2.34072 2.34355 
2.34712 2.34719 2.34316 2.34416 2.34604 2.34753 2.35007 2.3521 2.35785 
2.36468 2.36687 2.37256 2.37543 2.38063 2.38985 2.39591 2.39594 2.40456 
2.408 2.42025 2.43563 2.43616 2.43706 2.45175 2.45181 2.4599 2.46825 
2.46986 2.47132 2.47262 2.47266 2.4769 2.47833 2.48025 2.4826 2.48466 
2.48652 2.4883 2.48852 2.48733 2.48866 2.48895 2.48744 2.48125 2.4801 
2.47856 2.47856 2.47884 2.47884 2.47886 2.47789 2.47914 2.4811 2.48445 
2.48581 2.48828 2.48849 2.48838 2.48766 2.47739 2.4748 2.46439 2.4637 
2.45215 2.45136 2.43762 2.43002 2.42609 2.41621 2.41604 2.41638 2.4133 
2.40983 2.40983 2.40923 2.40593 2.40854 2.40858 2.41545 2.4157 2.41692 
2.41949 2.41977 2.42911 2.43225 2.43258 2.43192 2.42869 2.4276 2.40281 
2.39968 2.39218 2.37493 2.36707 2.35252 2.34822 2.31582 2.31414 2.29874 
2.29024 2.28478 2.27004 2.26795 2.25239 2.25266 2.2536 2.25597 2.25641 
2.26132 2.26193 2.26192 2.26132 2.25725 2.25489 2.25365 2.25206 2.24084 
2.23773 2.23769 2.23511 2.22575 2.22574 2.22515 2.22246 2.2202 2.22604 
2.22637 2.23277 2.24496 2.24667 2.25177 2.25336 2.26069 2.26195 2.26422 
2.26464 2.26477 2.26737 2.2688 2.27543 2.27687 2.27951 2.27899 2.27881 
2.28001 2.28229 2.28227 2.27783 2.27783 2.27699 2.26863 2.2565 2.25437 
2.24712 2.23513 2.22246 2.21846 2.19744 2.19439 2.18011 2.17255 2.14415 
2.12161 2.07333 2.06555 2.01199 1.96873 1.92364 1.90231 1.9023 1.90016 
1.8924 1.87795 1.87652 1.86795 1.8666 1.86578 1.86422 1.86288 1.86711 
1.86816 1.87244 1.87433 1.87803 1.88361 1.88364 1.88654 1.88659 1.88713 
1.88964 1.89077 1.89078 1.8933 1.89341 1.90686 1.91102 1.91606 1.92285 
1.9279 1.92937 1.92985 1.93255 1.93893 1.94198 1.94783 1.9512 1.95848 
1.96545 1.9655 1.97143 1.97172 1.97806 1.97955 1.98263 1.98786 1.98792 
1.99344 1.99347 2.00058 2.02492 2.02838 2.02848 2.02867 2.04289 2.04653 
2.05178 2.06365 2.08292 2.08419 2.08963 2.08964 2.09006 2.09689 2.09798 
2.10348 2.10487 2.10661 2.11047 2.11959 2.12066 2.12217 2.12401 2.12587 
2.12703 2.1383 2.13975 2.14311 2.14761 2.1493 2.156 2.15682 2.16171 
2.16555 2.17139 2.17744 2.18108 2.18613 2.18665 2.19768 2.1982 2.20229 
2.20248 2.21349 2.21684 2.22235 2.22994 2.22997 2.23572 2.23884 2.24886 
2.24888 2.25161 2.25162 2.25366 2.25529 2.26375 2.26557 2.2802 2.29463 
2.29474 2.29933 2.30208 2.31988 2.33688 2.34304 2.34685 2.35134 2.35381 
2.35516 2.35655 2.35658 2.364 2.37734 2.38487 2.38878 2.38883 2.39903 
2.40822 2.40828 2.41377 2.41379 2.41865 2.42278 2.43263 2.43368 2.44789 
2.461 2.46529 2.47951 2.48511 2.48514 2.4869 2.49718 2.4972 2.5015 
2.5038 2.50885 2.51751 2.52665 2.52753 2.53521 2.54313 2.54488 2.5468 
2.55182 2.55637 2.55738 2.5574 2.56287 2.56578 2.56799 2.56902 2.57021 
2.57558 2.57584 2.57587 2.57786 2.58087 2.58202 2.58275 2.58748 2.59029 
2.59096 2.59258 2.59415 2.59545 2.59739 2.61535 2.63291 2.63296 2.6468 
2.67776 2.67785 2.68842 2.70366 2.7228 2.72285 2.72691 2.72857 0.478287 
0.472027 0.459212 0.4427 0.434042 0.435918 0.444591 0.453356 0.470506 0.470577 
0.486294 0.491117 0.49247 0.503174 0.50216 0.500408 0.494027 0.494834 0.496828 
0.500166 0.501017 0.501391 0.506312 0.506316 0.507243 0.510565 0.510099 0.537815 
0.539318 0.541451 0.545638 0.553809 0.552466 0.551945 0.543031 0.537874 0.543622 
0.542192 0.537772 0.540838 0.542301 0.540876 0.543933 0.546126 0.558174 0.626577 
0.632806 0.641555 0.673226 0.682382 0.71762 0.719158 0.772552 0.880557 0.981284 
1.06534 1.06585 1.1916 1.19245 1.24452 1.38382 1.40406 1.44621 1.51418 
1.65407 1.73759 1.76992 1.81669 1.83622 1.92832 2.02419 2.02421 2.02763 
2.02874 2.05852 2.11038 2.11042 2.11317 2.1412 2.17237 2.18381 2.21685 
2.24321 2.28323 2.29758 2.33226 2.33253 2.33966 2.33979 2.35583 2.35816 
2.36079 2.36087 2.3728 2.3728 2.3734 2.37745 2.37784 2.37839 2.38362 
2.38371 2.3943 2.39495 2.40625 2.40866 2.41414 2.41463 2.42632 2.4402 
2.44588 2.44599 2.4602 2.47001 2.47409 2.49429 2.49485 2.50709 2.50866 
2.51247 2.51658 2.51661 2.5184 2.52025 2.52438 2.52448 2.53245 2.54038 
2.54191 2.54214 2.54776 2.5505 2.56781 2.57253 2.58527 2.5853 2.59423 
2.59437 2.59746 2.59747 2.60231 2.60348 2.60548 2.61529 2.62091 2.62996 
2.63032 2.63172 2.63256 2.63113 2.6221 2.61178 2.60787 2.60377 2.60117 
2.59754 2.57909 2.56952 2.51507 2.5117 2.50604 2.50058 2.49887 2.48745 
2.48336 2.46734 2.4382 2.43243 2.42585 2.40324 2.40168 2.38057 2.37876 
2.34912 2.33309 2.32392 2.32294 2.32102 2.32046 2.31943 2.31738 2.31638 
2.31272 2.30853 2.30623 2.3059 2.30564 2.30644 2.30647 2.30367 2.30628 
2.30831 2.31832 2.31895 2.32679 2.33173 2.34275 2.35001 2.34979 2.35048 
2.35091 2.3504 2.34919 2.33819 2.32877 2.32113 2.30347 2.30342 2.29756 
2.27619 2.27111 2.25475 2.25474 2.25368 2.24545 2.24389 2.24248 2.24937 
2.25012 2.25406 2.26068 2.26082 2.26588 2.27014 2.27185 2.28018 2.28211 
2.28888 2.29457 2.30066 2.30076 2.30907 2.31114 2.31118 2.31357 2.31359 
2.31715 2.3179 2.32825 2.33056 2.33534 2.33915 2.3441 2.34548 2.34919 
2.35156 2.35409 2.3541 2.35583 2.35823 2.35825 2.36349 2.36484 2.37121 
2.37355 2.37466 2.37469 2.37698 2.37761 2.3786 2.3786 2.37873 2.3794 
2.38609 2.38836 2.3889 2.3889 2.3863 2.38681 2.38666 2.3796 2.37736 
2.37535 2.37289 2.36778 2.3669 2.36385 2.36347 2.36142 2.36142 2.36074 
2.3519 2.34657 2.3377 2.33609 2.3355 2.32749 2.32671 2.32226 2.30727 
2.29231 2.28597 2.28574 2.25413 2.23752 2.23509 2.23287 2.21901 2.21778 
2.2169 2.21426 2.2126 2.21295 2.21433 2.21507 2.21555 2.21499 2.21722 
2.21867 2.22376 2.23296 2.23846 2.24638 2.24648 2.25124 2.26322 2.2741 
2.28752 2.28763 2.28905 2.29608 2.29875 2.30229 2.30842 2.32111 2.32113 
2.32633 2.32654 2.35291 2.35291 2.35403 2.34237 2.34452 2.34541 2.3474 
2.34801 2.35255 2.35258 2.35918 2.37665 2.39147 2.4046 2.4089 2.40935 
2.43134 2.43588 2.47278 2.47749 2.48424 2.50102 2.50492 2.50499 2.507 
2.50827 2.51155 2.51212 2.52841 2.55091 2.55092 2.55137 2.5533 2.56679 
2.57666 2.57671 2.58375 2.59116 2.59884 2.62632 2.62639 2.6342 2.64998 
2.66273 2.67293 2.67741 2.68105 2.69288 2.69651 2.69858 2.69858 2.69988 
2.7032 2.70894 2.70935 2.71024 2.71084 2.71085 2.71334 2.71399 2.71419 
2.71455 2.71389 2.71368 2.71329 2.71116 2.71013 2.70887 2.70372 2.70148 
2.69956 2.69956 2.69931 2.69602 2.68769 2.67308 2.67308 2.67299 2.6555 
2.65549 2.65361 2.63489 2.62541 2.61253 2.60193 2.60192 2.60045 2.58923 
2.58346 2.56526 2.56526 2.56471 2.55167 2.52575 2.52574 2.5248 2.50906 
2.48823 2.47978 2.46406 2.46183 2.44722 2.44676 2.44096 2.44164 2.44392 
2.45281 2.45487 2.46431 2.46783 2.47415 2.48206 2.48214 2.48686 2.49352 
2.50205 2.50261 2.50491 2.50899 2.50904 2.50898 2.50479 2.49215 2.48946 
2.47317 2.47164 2.45724 2.45177 2.44164 2.43571 2.43073 2.43072 2.42815 
2.41789 2.41506 2.41525 2.41581 2.41584 2.42259 2.4226 2.42446 2.42907 
2.42989 2.44412 2.44772 2.44827 2.45156 2.46734 2.46761 2.48117 2.4848 
2.48699 2.49077 2.50877 2.5089 2.51176 2.51315 2.51318 2.51964 2.5249 
2.52491 2.52718 2.53418 2.53836 2.53853 2.54074 2.5427 2.54324 2.54363 
2.54469 2.54211 2.54146 2.53987 2.53639 2.53614 2.53614 2.5361 2.52723 
2.52723 2.52715 2.52245 2.5195 2.51286 2.51196 2.50415 2.4955 2.49546 
2.49398 2.48608 2.48404 2.47982 2.47916 2.48049 2.48088 2.48111 2.48264 
2.4835 2.48364 2.48257 2.47926 2.47901 2.47848 2.47737 2.47211 2.46872 
2.46453 2.46275 2.46267 2.46254 2.46153 2.46088 2.4555 2.44253 2.43991 