# vtk DataFile Version 3.0
vtk output
ASCII
DATASET POLYDATA
POINTS 294 float
0.0403569 0.0724911 0.0624752 0.0403641 0.0724747 0.0623789 0.040371 0.0725031 0.0618645 
0.040375 0.0725034 0.0618426 0.040338 0.0725596 0.0613253 0.0403625 0.0725048 0.060843 
0.0403338 0.0725392 0.0605475 0.0402481 0.0726544 0.0598097 0.0402988 0.0726568 0.0594347 
0.0402919 0.0725827 0.059036 0.0402924 0.0725821 0.0590295 0.0403096 0.0725543 0.058765 
0.040205 0.0726364 0.0581952 0.0402993 0.072652 0.0577063 0.0401721 0.0725919 0.0569944 
0.0401707 0.0725903 0.0569874 0.0402361 0.0726222 0.0564957 0.0402091 0.0726173 0.0563521 
0.040207 0.0726268 0.0557535 0.0402074 0.0726267 0.0557517 0.0402981 0.0725969 0.055299 
0.040315 0.0726117 0.0552538 0.0403464 0.0725351 0.05424 0.0403656 0.0725657 0.0540967 
0.040466 0.0725156 0.0537204 0.0406452 0.0723583 0.0532477 0.0406594 0.0723548 0.053163 
0.0409513 0.0722985 0.0523536 0.04098 0.072289 0.052318 0.0411852 0.0722264 0.0519622 
0.0412334 0.0721743 0.0518177 0.0414631 0.0719982 0.0512579 0.0416281 0.0719651 0.0510001 
0.0416825 0.0719004 0.0506826 0.0417593 0.0718676 0.0504898 0.0417897 0.0718268 0.0503698 
0.0420195 0.0716022 0.0496084 0.0420501 0.0715992 0.0495128 0.042268 0.0715047 0.0491049 
0.0422717 0.0715081 0.0490858 0.0423885 0.0715452 0.0484768 0.0424033 0.0715427 0.0484474 
0.0425489 0.0714476 0.0481468 0.0428069 0.0713094 0.0474756 0.0429062 0.0712161 0.0472342 
0.0431269 0.0711573 0.0463934 0.0432685 0.0710428 0.0462308 0.0437137 0.0710172 0.0452177 
0.0438392 0.0710675 0.0449003 0.0442502 0.0707089 0.0441865 0.0441297 0.070658 0.0433523 
0.0441067 0.0706403 0.0432595 0.0442782 0.0704198 0.0429654 0.0446021 0.0704053 0.0417194 
0.0446146 0.0703861 0.0416302 0.0446927 0.0705863 0.0411101 0.0450028 0.0710472 0.0400714 
0.0450055 0.071052 0.0400631 0.0449935 0.0713049 0.039527 0.0450211 0.0713289 0.0394545 
0.0450985 0.0714729 0.0390991 0.0452112 0.071527 0.0389274 0.0454098 0.0716316 0.0383569 
0.045432 0.0717918 0.0376095 0.0458071 0.0719647 0.0368207 0.0458066 0.0719537 0.0363115 
0.045855 0.071968 0.0360584 0.0460098 0.0719096 0.035486 0.0461293 0.072117 0.0348354 
0.04637 0.0720021 0.0337243 0.0464148 0.0719515 0.0331475 0.0466591 0.071909 0.0320289 
0.0468192 0.0717969 0.0315996 0.0468409 0.0717879 0.0315547 0.047104 0.0716434 0.0311671 
0.047104 0.0716434 0.031167 0.0471161 0.0716412 0.0311439 0.0472889 0.071485 0.0305817 
0.0472983 0.0714573 0.0305124 0.0473077 0.0712959 0.0297843 0.0474464 0.0711995 0.029483 
0.0474811 0.0711794 0.0293575 0.0474643 0.071084 0.0281026 0.0474668 0.0710822 0.028097 
0.0476713 0.0709327 0.0276381 0.0477836 0.0709721 0.026672 0.0477939 0.0709596 0.0266412 
0.0480968 0.0709982 0.0256214 0.0485409 0.071034 0.0247791 0.0485842 0.0709742 0.0245909 
0.0489313 0.0710686 0.0237275 0.0489445 0.071039 0.0234248 0.0492719 0.0709714 0.0227104 
0.049452 0.0709289 0.0217639 0.0495146 0.0710165 0.0212954 0.0495874 0.0709897 0.0207817 
0.049699 0.0709577 0.0202719 0.0497736 0.0710627 0.0199485 0.0499515 0.0709236 0.0193193 
0.0499558 0.0709072 0.0192343 0.0500939 0.0710009 0.0185562 0.0501214 0.0709432 0.0182996 
0.0503176 0.070905 0.0177512 0.0503136 0.0708838 0.0175857 0.0504851 0.0709047 0.0168404 
0.0504976 0.0709009 0.0167094 0.0505953 0.070884 0.0162402 0.0507289 0.0708721 0.0156205 
0.0508705 0.0708536 0.0149912 0.0509541 0.070825 0.0146245 0.0509614 0.0708272 0.0145982 
0.0510374 0.0708766 0.0138113 0.0509813 0.0708734 0.0136926 0.051345 0.0707777 0.0128424 
0.0514688 0.0708255 0.0125791 0.058121 0.0633127 0.0788244 0.0581067 0.063325 0.0787788 
0.0579976 0.0634886 0.0783798 0.057919 0.0635713 0.0781446 0.0578791 0.0636195 0.0780135 
0.0577748 0.0637455 0.0776349 0.0577574 0.0637641 0.0775842 0.0576878 0.063858 0.0773319 
0.0576877 0.0638581 0.0773315 0.0576848 0.0638622 0.0773203 0.0576846 0.0638624 0.0773196 
0.0576633 0.0638916 0.0772353 0.0576207 0.0639404 0.0770572 0.0576119 0.0639506 0.0770185 
0.0574452 0.0641514 0.0764482 0.057443 0.0641565 0.076439 0.0573693 0.0642709 0.0761717 
0.0572965 0.0643445 0.0759504 0.0572424 0.0643968 0.0757855 0.0571784 0.0645004 0.0755062 
0.0571627 0.0645214 0.0754491 0.0571036 0.0645968 0.0752323 0.0570394 0.0646922 0.0749744 
0.0569576 0.0647799 0.0746957 0.0568812 0.0648706 0.0744551 0.0568489 0.0649167 0.074324 
0.056832 0.0649424 0.0742519 0.0568096 0.0649709 0.0741815 0.056786 0.064998 0.0741084 
0.0567091 0.0650809 0.0738599 0.0566405 0.0651788 0.0735878 0.0566187 0.0652097 0.0734944 
0.0565496 0.065322 0.0731941 0.0564974 0.065372 0.0730752 0.0563623 0.0655287 0.0725942 
0.0562879 0.0656145 0.0723189 0.0562612 0.0656481 0.0722181 0.0561843 0.0657525 0.0719562 
0.0561748 0.0657665 0.0719234 0.0561093 0.0658493 0.0716751 0.0560519 0.0659313 0.071473 
0.0559457 0.066045 0.0711137 0.0558416 0.0661846 0.0707502 0.0558404 0.0661873 0.0707429 
0.0557384 0.066317 0.0703869 0.0557281 0.0663328 0.0703267 0.0556807 0.0663982 0.0701151 
0.0556646 0.0664132 0.0700738 0.0556021 0.0664745 0.0699015 0.0555029 0.0666167 0.0695441 
0.0554995 0.0666186 0.0695354 0.0554157 0.0667155 0.0692198 0.0554084 0.0667214 0.0691965 
0.0553924 0.066736 0.0691507 0.0553285 0.0668153 0.0688811 0.055182 0.0670176 0.0683601 
0.0551804 0.0670209 0.0683537 0.0550517 0.0671974 0.0678932 0.0549277 0.0673398 0.0674615 
0.0548687 0.0674107 0.0672499 0.0548541 0.0674266 0.0672034 0.0548385 0.0674421 0.0671528 
0.0547335 0.0676085 0.0666925 0.0547283 0.0676173 0.06667 0.054671 0.0676563 0.0665087 
0.054569 0.0677622 0.0661994 0.0544493 0.0678924 0.0658578 0.0544092 0.0679491 0.0656975 
0.0543702 0.067994 0.0655402 0.0543338 0.0680436 0.0653932 0.0542443 0.068246 0.0649345 
0.0541797 0.0683893 0.0645891 0.0540203 0.0685637 0.0640597 0.0539786 0.0686511 0.0639026 
0.0537135 0.0689593 0.0625896 0.0537135 0.0689594 0.0625894 0.0537131 0.0689784 0.0625524 
0.0533158 0.0692811 0.0612896 0.0532464 0.0692918 0.0610937 0.0531558 0.0694056 0.0607545 
0.0530178 0.0695417 0.0604397 0.0527648 0.0696338 0.0598141 0.052668 0.0697077 0.0595836 
0.0524013 0.0698616 0.0589758 0.0521264 0.0699197 0.0584521 0.051681 0.0700278 0.0575399 
0.0515423 0.0701988 0.0570696 0.0509199 0.0704677 0.0556775 0.0508594 0.0704827 0.0555757 
0.0505547 0.0706196 0.0550444 0.0501352 0.0708593 0.0541319 0.0500308 0.070897 0.0537753 
0.0497205 0.0711028 0.0527053 0.0497006 0.0711214 0.0526429 0.049598 0.0712111 0.0524205 
0.0494758 0.0714011 0.0519777 0.0492981 0.0714827 0.0516318 0.0489172 0.0716156 0.0509908 
0.0484699 0.071865 0.0501161 0.0484272 0.071923 0.0500033 0.0482119 0.0720821 0.0492424 
0.0481413 0.0721142 0.0491353 0.0479457 0.0722422 0.0488234 0.0479289 0.0722508 0.0487663 
0.0478974 0.0722778 0.0486157 0.0474864 0.072533 0.0476325 0.047303 0.0727316 0.047107 
0.0472979 0.0727465 0.0470815 0.0472973 0.0727597 0.0470609 0.0473408 0.0730041 0.0463304 
0.0473175 0.0732742 0.0459346 0.0470894 0.0733843 0.0452232 0.0470828 0.0736272 0.0447024 
0.0467772 0.0738576 0.0439266 0.0465453 0.0740604 0.0431443 0.0463704 0.0741104 0.0424234 
0.0462819 0.0742477 0.0419128 0.0462816 0.074248 0.0419124 0.0462576 0.0742735 0.0418762 
0.0459849 0.0743532 0.0408166 0.0459844 0.0743518 0.0408135 0.0458495 0.0740048 0.0400406 
0.0456719 0.0739549 0.0395331 0.0457066 0.0735834 0.0385081 0.0457148 0.0735632 0.0384705 
0.0458163 0.0733569 0.0381874 0.0458231 0.0733466 0.0381743 0.0458415 0.0729226 0.0375699 
0.0458427 0.0729214 0.0375665 0.0459455 0.072818 0.037286 0.0460217 0.0726457 0.0364075 
0.0462453 0.0722952 0.0352343 0.0461413 0.0722006 0.034778 0.04637 0.0720021 0.0337243 
0.0464148 0.0719515 0.0331475 0.0466591 0.071909 0.0320289 0.0468192 0.0717969 0.0315996 
0.0468409 0.0717879 0.0315547 0.047104 0.0716434 0.0311671 0.047104 0.0716434 0.031167 
0.0471161 0.0716412 0.0311439 0.0472889 0.071485 0.0305817 0.0472983 0.0714573 0.0305124 
0.0473077 0.0712959 0.0297843 0.0474464 0.0711995 0.029483 0.0474811 0.0711794 0.0293575 
0.0474643 0.071084 0.0281026 0.0474668 0.0710822 0.028097 0.0476713 0.0709327 0.0276381 
0.0477836 0.0709721 0.026672 0.0477939 0.0709596 0.0266412 0.0480968 0.0709982 0.0256214 
0.0485409 0.071034 0.0247791 0.0485842 0.0709742 0.0245909 0.0489313 0.0710686 0.0237275 
0.0489445 0.071039 0.0234248 0.0492719 0.0709714 0.0227104 0.049452 0.0709289 0.0217639 
0.0495146 0.0710165 0.0212954 0.0495874 0.0709897 0.0207817 0.049699 0.0709577 0.0202719 
0.0497736 0.0710627 0.0199485 0.0499515 0.0709236 0.0193193 0.0499558 0.0709072 0.0192343 
0.0500939 0.0710009 0.0185562 0.0501214 0.0709432 0.0182996 0.0503176 0.070905 0.0177512 
0.0503136 0.0708838 0.0175857 0.0504851 0.0709047 0.0168404 0.0504976 0.0709009 0.0167094 
0.0505953 0.070884 0.0162402 0.0507289 0.0708721 0.0156205 0.0508705 0.0708536 0.0149912 
0.0509541 0.070825 0.0146245 0.0509614 0.0708272 0.0145982 0.0510374 0.0708766 0.0138113 
0.0509813 0.0708734 0.0136926 0.051345 0.0707777 0.0128424 0.0514688 0.0708255 0.0125791 

LINES 2 296
115 114 113 112 111 110 109 108 107 106 105 104 103 102 101 100 99 98 97 96 95 94 93 92 91 90 89 88 87 86 85 84 83 82 81 80 79 78 77 76 75 74 73 72 71 70 69 68 67 66 65 64 63 62 61 60 59 58 57 56 55 54 53 52 51 50 49 48 47 46 45 44 43 42 41 40 39 38 37 36 35 34 33 32 31 30 29 28 27 26 25 24 23 22 21 20 19 18 17 16 15 14 13 12 11 10 9 8 7 6 5 4 3 2 1 0 
179 293 292 291 290 289 288 287 286 285 284 283 282 281 280 279 278 277 276 275 274 273 272 271 270 269 268 267 266 265 264 263 262 261 260 259 258 257 256 255 254 253 252 251 250 249 248 247 246 245 244 243 242 241 240 239 238 237 236 235 234 233 232 231 230 229 228 227 226 225 224 223 222 221 220 219 218 217 216 215 214 213 212 211 210 209 208 207 206 205 204 203 202 201 200 199 198 197 196 195 194 193 192 191 190 189 188 187 186 185 184 183 182 181 180 179 178 177 176 175 174 173 172 171 170 169 168 167 166 165 164 163 162 161 160 159 158 157 156 155 154 153 152 151 150 149 148 147 146 145 144 143 142 141 140 139 138 137 136 135 134 133 132 131 130 129 128 127 126 125 124 123 122 121 120 119 118 117 116 115 

POINT_DATA 294
FIELD FieldData 3
MaximumInscribedSphereRadius 1 294 double
0.00139439 0.00138673 0.00136574 0.00136734 0.00140013 0.00138124 0.0013413 0.00144439 0.00140357 
0.00135441 0.001355 0.00137916 0.00142196 0.00139919 0.00140993 0.00141114 0.00136742 0.00134288 
0.00129947 0.0012997 0.00135641 0.0013524 0.0012424 0.00124422 0.00123249 0.00121495 0.00122141 
0.00137328 0.00137916 0.00143889 0.00144324 0.00147477 0.00150906 0.00150457 0.00148649 0.0014646 
0.00141366 0.00141477 0.00140308 0.00139902 0.00129066 0.00128359 0.00126629 0.00130726 0.00123667 
0.00112639 0.00108872 0.00105252 0.00110214 0.000991166 0.00105103 0.00105707 0.00105088 0.00122732 
0.00125641 0.00125528 0.00139869 0.00140065 0.00154921 0.00156943 0.00170666 0.00174728 0.00183694 
0.00200159 0.00219292 0.00219108 0.00220363 0.0022287 0.00226542 0.00224227 0.0022429 0.0022049 
0.00227494 0.00228526 0.00235378 0.00235378 0.00235447 0.00229956 0.00228661 0.00214585 0.00203615 
0.00198297 0.00164889 0.00164752 0.00153455 0.00137913 0.00137341 0.00128847 0.00123598 0.00123536 
0.0013111 0.00128976 0.00126454 0.0013574 0.00128655 0.00130234 0.00133845 0.00134496 0.0013045 
0.0013021 0.00130949 0.00130916 0.00131466 0.00130653 0.00132679 0.00131779 0.00128334 0.0013371 
0.00127114 0.00126627 0.00126756 0.00138672 0.00139813 0.0012948 0.00134756 0.00250983 0.00251007 
0.00250346 0.00250799 0.00251181 0.00251184 0.00251089 0.00251174 0.00251176 0.00251234 0.00251238 
0.00251741 0.00252883 0.00253104 0.00251969 0.00252035 0.00252199 0.00251429 0.00251402 0.00250907 
0.00250997 0.00250793 0.00251086 0.0025137 0.00250693 0.00250809 0.00251044 0.00251039 0.00250974 
0.0025182 0.00251283 0.00251372 0.00253637 0.00253404 0.00251289 0.00252622 0.00251937 0.00251285 
0.00251324 0.00251224 0.00251892 0.00252105 0.00251417 0.00251434 0.00251193 0.00251438 0.0025224 
0.00252078 0.00251374 0.00251881 0.00251936 0.00251577 0.0025161 0.00251654 0.00251857 0.00251384 
0.0025142 0.00253636 0.00251018 0.00251098 0.00251204 0.00251267 0.00253424 0.00253564 0.00253662 
0.0025087 0.00251324 0.00251901 0.00252539 0.00253791 0.00249653 0.00247009 0.00242147 0.0023998 
0.00232839 0.0023284 0.00233001 0.00230693 0.00233649 0.0023721 0.00238354 0.00244266 0.00244443 
0.00237343 0.00236863 0.00220834 0.0021922 0.00220034 0.00220277 0.00217937 0.00217495 0.00214513 
0.00219423 0.00219734 0.00219492 0.00219901 0.00217914 0.00214923 0.00195737 0.00193546 0.0019089 
0.00191269 0.00191312 0.00190576 0.00188239 0.0017932 0.00176907 0.00176674 0.00176463 0.00172754 
0.00169937 0.00156474 0.00145353 0.00143292 0.00153973 0.00154347 0.00157241 0.0015724 0.00157164 
0.00139093 0.00139106 0.00142482 0.00153046 0.0018142 0.00183045 0.00194465 0.00194992 0.00206796 
0.00206811 0.00208103 0.00211984 0.0022116 0.00224637 0.00224227 0.0022429 0.0022049 0.00227494 
0.00228526 0.00235378 0.00235378 0.00235447 0.00229956 0.00228661 0.00214585 0.00203615 0.00198297 
0.00164889 0.00164752 0.00153455 0.00137913 0.00137341 0.00128847 0.00123598 0.00123536 0.0013111 
0.00128976 0.00126454 0.0013574 0.00128655 0.00130234 0.00133845 0.00134496 0.0013045 0.0013021 
0.00130949 0.00130916 0.00131466 0.00130653 0.00132679 0.00131779 0.00128334 0.0013371 0.00127114 
0.00126627 0.00126756 0.00138672 0.00139813 0.0012948 0.00134756 
EdgeArray 2 294 int
1867 1867 1717 7 1797 1797 1798 1796 1793 
1793 968 968 1530 1530 1534 1534 1038 1539 
1541 1541 1540 1541 1540 1540 964 964 1653 
1653 1656 1656 1655 1657 1620 523 1621 854 
1838 1838 1836 1838 1836 1836 614 614 1023 
1023 1697 699 1697 1694 1695 1694 1695 1021 
67 67 1775 1779 1778 1778 1088 1088 684 
513 685 512 533 357 533 531 530 530 
1131 1131 1127 1126 1073 1598 1073 1595 1595 
1596 1596 1597 1597 51 1070 1070 399 398 
746 746 743 743 1785 1785 754 754 1759 
242 574 1760 1760 1760 956 1758 1005 1005 
1004 1003 104 104 263 263 1261 1571 1571 
1572 1572 1576 1576 1265 1264 1574 1263 1263 
1514 1000 1811 1811 1816 1814 1812 1815 756 
756 1558 1558 939 939 1156 1156 1661 1661 
1662 1663 1663 34 1569 1569 1629 1569 1629 
1629 704 704 230 390 305 305 344 885 
1196 344 1145 1145 1146 1145 1146 1146 953 
953 970 1701 406 406 640 640 638 638 
279 279 1043 1043 1042 1042 1308 1308 1306 
1306 1007 1007 949 948 1358 1358 1508 1508 
1506 1504 1389 1389 1388 1385 1386 1386 169 
378 1664 1664 1668 1669 1667 1667 1169 1169 
1170 1170 806 806 789 0 0 17 485 
485 728 728 1637 1637 944 944 977 1417 
1421 1421 1747 1745 1749 1749 678 678 66 
552 1411 1411 1862 1411 1862 1862 1864 1862 
1864 1864 1409 1413 324 324 1323 1323 1324 
1325 1319 1319 1032 1032 782 1031 177 177 
224 224 1602 1602 1606 1606 555 555 1455 
1455 1315 1456 1316 1315 1316 1314 1314 1313 
1310 1310 981 897 1182 1182 1177 1181 1822 
1822 1817 1817 713 713 1488 1490 1489 1489 
1239 1486 1236 1487 1197 1197 1201 1201 1382 
1382 1380 1150 1149 1149 1523 1523 1524 1521 
1524 880 1370 1370 1592 1592 1593 1591 1674 
1676 1676 1675 1675 1675 1678 1678 1616 1616 
1613 1617 429 429 1762 1762 1772 1772 1771 
1426 1429 1426 1475 1431 1468 1475 1472 1472 
1116 1116 1121 1121 1242 1123 1242 1242 1245 
1245 473 473 1101 1101 1709 1100 470 1065 
610 610 609 610 609 609 994 581 579 
167 415 579 415 247 591 591 598 598 
231 1551 872 872 620 620 368 368 925 
925 1394 1394 1390 1390 1286 1286 1737 1737 
698 698 1045 1049 1049 1050 1278 1278 1279 
1279 537 537 1009 1009 434 535 432 432 
431 1018 1018 1018 116 1019 163 163 1396 
1396 165 915 915 917 917 917 186 278 
278 1483 1805 1805 1799 1799 1639 1639 1645 
1645 1724 1509 1510 1510 1512 1510 1512 1512 
208 208 209 208 209 209 1752 102 1754 
1754 1343 1756 312 1343 311 312 313 313 
286 313 286 286 824 824 1253 1253 1578 
1578 939 939 1156 1156 1661 1661 1662 1663 
1663 34 1569 1569 1629 1569 1629 1629 704 
704 230 390 305 305 344 885 1196 344 
1145 1145 1146 1145 1146 1146 953 953 970 
1701 406 406 640 640 638 638 279 279 
1043 1043 1042 1042 1308 1308 1306 1306 1007 
1007 949 948 1358 1358 1508 1508 1506 1504 
1389 1389 1388 1385 1386 1386 169 378 1664 
1664 1668 1669 1667 1667 1169 1169 1170 1170 
806 806 789 0 0 17 485 485 728 
728 1637 1637 
EdgePCoordArray 1 294 double
0 0.764 0 0.008 0 0 0 0 0.636 
0 0.976 0 0 0 0 0.76 0.852 0.82 
0 0.996 0 0 0 0.88 0.404 0.152 0.128 
0 0.02 0 0 0.644 0.124 0.256 0.744 0 
0 0.884 0.036 0.088 0.956 0.136 0.32 0 0.88 
0 0 0 0 0.872 0.896 0 0.54 0 
0.064 0 0 0.012 0.612 0.02 0.188 0.6 0 
0.204 0 0.308 0.4 0 0 0 0 0 
0.204 0.064 0 0.996 0 0 0.912 0 0.544 
0.5 0 0.988 0 0 0.016 0 0 0 
0 0 0 0 0 0 0.812 0 0 
0.192 0 0.108 0 0.012 0 0.192 0 0 
0 0 0.016 0.452 0 0 0 0 0.14 
0 0.604 0 0 0.692 0 0.972 0 0.992 
0 0.168 0 0 0.016 0 0 0.748 0 
0 0 0 0 0 0.612 0.536 0.488 0.088 
0 0.212 0 0.904 0 0 0 0.632 0 
0.068 0.1 0 0 0 0.084 0 0 0.112 
0.312 0 0 0.028 0.816 0.408 0 0 0 
0.996 0 0 0 0.296 0.992 0.1 0.948 0 
0 0 0.804 0 0 0 0 0.908 0.764 
0 0.996 0 0.48 0.472 0.504 0.212 0 0 
0.592 0 0 0 0 0 0 0 0 
0 0.232 0.512 0 0 0 0 0.704 0 
0.252 0 0.74 0 0 0.972 0.44 0 0.456 
0.456 0 0 0 0 0.38 0 0.988 0 
0 0.996 0 0.94 0 0.944 0.068 0.984 0 
0.988 0 0 0 0 0 0 0 0.204 
0.064 0 0.996 0 0 0.912 0 0.544 0.5 
0 0.988 0 0 0.016 0 0 0 0 
0 0 0 0 0 0.812 0 0 0.192 
0 0.108 0 0.012 0 0.192 0 0 0 
0 0.016 0.452 0 0 0 
