# vtk DataFile Version 3.0
vtk output
ASCII
DATASET POLYDATA
POINTS 368 float
0.0589931 0.0622162 0.0819917 0.0589929 0.0622164 0.0819912 0.0589587 0.0622597 0.0818686 
0.0589583 0.0622602 0.0818673 0.0588543 0.0623954 0.0814855 0.0588299 0.0624309 0.0814051 
0.0586706 0.0626232 0.08084 0.0586675 0.0626258 0.080832 0.058579 0.0627378 0.0805167 
0.0585789 0.0627379 0.0805166 0.0585773 0.0627409 0.0805104 0.0585334 0.0628138 0.0803514 
0.0583819 0.0629882 0.0798144 0.0583791 0.0629892 0.079805 0.0583791 0.0629892 0.0798048 
0.0583786 0.0629898 0.0798028 0.058271 0.0631249 0.0794153 0.0581623 0.063263 0.0790255 
0.058159 0.0632661 0.0790114 0.0580443 0.0634106 0.0785988 0.057938 0.0635421 0.0782321 
0.0579373 0.063543 0.0782294 0.0579241 0.0635599 0.0781805 0.0578256 0.0636844 0.0778287 
0.0577149 0.0638251 0.077428 0.0576068 0.0639604 0.0770427 0.0575083 0.0640858 0.0766897 
0.0575026 0.0640908 0.0766713 0.0573985 0.0642225 0.076296 0.0573956 0.0642259 0.0762863 
0.0572971 0.0643506 0.0759351 0.0572965 0.0643513 0.0759329 0.0571896 0.064486 0.075548 
0.0571879 0.0644898 0.0755367 0.0570793 0.0646273 0.0751459 0.0570788 0.0646278 0.0751439 
0.0569677 0.0647674 0.0747564 0.0569638 0.0647707 0.0747459 0.0568577 0.0649032 0.0743611 
0.0567657 0.065024 0.0740269 0.0567478 0.0650428 0.0739808 0.0566287 0.0651928 0.0735812 
0.0565249 0.0653113 0.0732099 0.0565028 0.0653494 0.0731059 0.0564244 0.0654502 0.0728095 
0.0564241 0.0654506 0.0728084 0.056423 0.0654515 0.0728051 0.0564144 0.0654616 0.0727763 
0.0563236 0.0655774 0.0724547 0.0563189 0.0655863 0.0724293 0.0562259 0.0657034 0.0721074 
0.0561095 0.065844 0.071695 0.0561045 0.0658528 0.0716633 0.0559988 0.0659892 0.0712938 
0.0559988 0.0659892 0.0712937 0.0559978 0.0659917 0.0712869 0.0559079 0.0661046 0.0709667 
0.0558806 0.0661303 0.0708799 0.0558774 0.0661341 0.0708685 0.0557887 0.0662511 0.0705505 
0.0556659 0.0664087 0.0701212 0.055564 0.0665266 0.0697486 0.055561 0.0665313 0.0697334 
0.0554703 0.0666501 0.0694195 0.0554702 0.0666502 0.069419 0.0554602 0.0666579 0.069394 
0.0553621 0.0667792 0.0690463 0.0553377 0.0668112 0.0689374 0.0552588 0.0669223 0.0686484 
0.0552587 0.0669223 0.0686484 0.0552564 0.0669245 0.0686405 0.055142 0.0670689 0.068238 
0.0551396 0.0670742 0.0682216 0.0550526 0.0671784 0.0679068 0.0550434 0.0671902 0.0678665 
0.0549345 0.0673316 0.0674946 0.0548339 0.0674567 0.0671428 0.0548264 0.0674635 0.0671183 
0.0547488 0.0675582 0.0668477 0.0547069 0.067602 0.0667108 0.0546208 0.0677155 0.0664054 
0.054497 0.0678688 0.0659739 0.0544862 0.0678872 0.0659199 0.0543756 0.0680131 0.0655565 
0.0543619 0.0680318 0.0654957 0.0543489 0.0680464 0.065452 0.0543275 0.068072 0.0653686 
0.0542778 0.0681577 0.0651324 0.0542013 0.0683876 0.064533 0.0540949 0.0685248 0.0641746 
0.0540881 0.0685287 0.0641521 0.0540578 0.0685666 0.0640009 0.0538656 0.0688012 0.0633685 
0.0537797 0.0688428 0.0631719 0.0535797 0.0690799 0.062151 0.0534079 0.0692139 0.06162 
0.0533782 0.0692212 0.0615209 0.0532373 0.06936 0.0609352 0.0531933 0.069422 0.0607697 
0.0530672 0.0695185 0.0603989 0.0529917 0.0695375 0.0601947 0.0529195 0.0695988 0.0599759 
0.0527531 0.0696826 0.0596114 0.0527328 0.0697066 0.0595498 0.0526111 0.06978 0.0591566 
0.0523891 0.0698313 0.058631 0.0519288 0.0700514 0.0577064 0.0519255 0.0700506 0.0577001 
0.0518129 0.0700197 0.0574812 0.0512513 0.0701922 0.0565847 0.050945 0.0703994 0.0558324 
0.0507153 0.0705414 0.0553781 0.0505476 0.0706419 0.0550059 0.0504096 0.0706775 0.0546611 
0.0500679 0.0708848 0.0538214 0.0498303 0.071139 0.0529836 0.0496968 0.0712015 0.0526318 
0.0495394 0.0712639 0.0521842 0.0493696 0.0714139 0.0518495 0.0491374 0.0715241 0.0513163 
0.049095 0.0715411 0.0512471 0.0488818 0.0716498 0.0508796 0.0488448 0.0716601 0.0508256 
0.0483979 0.0718961 0.0499596 0.0483635 0.0719371 0.0497742 0.0482432 0.0720169 0.0495632 
0.0478899 0.0722422 0.0489426 0.0478014 0.0723122 0.0485181 0.0475683 0.0725615 0.0476 
0.0475615 0.0725808 0.0475766 0.0473649 0.0730418 0.0465809 0.0473462 0.0730184 0.0464121 
0.0470511 0.0734884 0.0450411 0.0467564 0.0739416 0.0438664 0.0466673 0.0739294 0.0435385 
0.0463259 0.0741586 0.0424973 0.0463258 0.0741585 0.0424965 0.0463134 0.074142 0.0424017 
0.0463126 0.0741429 0.0423992 0.0462152 0.0742554 0.0420878 0.0459513 0.0742404 0.0409924 
0.0459505 0.0742398 0.040991 0.0458798 0.0741889 0.0408691 0.0458795 0.0741886 0.0408684 
0.0458649 0.0741734 0.0408395 0.0458644 0.074172 0.0408379 0.0457494 0.0738258 0.0404257 
0.0454741 0.0736475 0.0398273 0.0452215 0.0733165 0.0393995 0.044908 0.0721086 0.0395149 
0.045052 0.0713455 0.0399657 0.0450515 0.0713447 0.0399665 0.0449274 0.0711318 0.0401556 
0.0448748 0.0708872 0.0403403 0.0448038 0.0706268 0.0417854 0.0448035 0.0705808 0.0418426 
0.0444128 0.0704647 0.0428735 0.0444127 0.0704648 0.0428737 0.0444071 0.0704964 0.0429126 
0.0444083 0.0705229 0.0429771 0.0444071 0.070523 0.0429798 0.0441101 0.0705435 0.0436548 
0.0439622 0.0706031 0.0439369 0.0439857 0.0705883 0.0442314 0.0440311 0.0706138 0.0444258 
0.0440299 0.0706146 0.0444282 0.0437295 0.0708122 0.0450108 0.0437083 0.0707902 0.0452381 
0.043202 0.0709998 0.0459723 0.0431037 0.070978 0.0462387 0.0431025 0.07098 0.0462786 
0.0431025 0.0709801 0.0462793 0.0431155 0.0709952 0.0464433 0.0428931 0.0712083 0.046901 
0.0425466 0.0712539 0.0476255 0.0423844 0.0713285 0.0479278 0.0422972 0.0713452 0.0485632 
0.0422698 0.0713621 0.0486181 0.0420937 0.0715411 0.0490753 0.0420955 0.0716057 0.0495317 
0.0418424 0.0717697 0.0501462 0.041834 0.0717784 0.0502533 0.0415121 0.072042 0.0511213 
0.0414863 0.0720564 0.051152 0.0412516 0.0722054 0.0518364 0.0411777 0.0722316 0.0519493 
0.0409834 0.0722134 0.0523647 0.0407024 0.0724255 0.0531305 0.0404911 0.0725274 0.0538884 
0.0402766 0.0725488 0.054362 0.0401884 0.072688 0.0551539 0.0401611 0.0726491 0.0555417 
0.0401421 0.0726436 0.0557515 0.040142 0.0726435 0.0557522 0.0402232 0.072634 0.0562667 
0.0402349 0.0726422 0.0563453 0.0401967 0.0726477 0.0569909 0.0402094 0.0726549 0.0570525 
0.0402323 0.0726282 0.0576094 0.0402509 0.0726257 0.0577479 0.040261 0.0726156 0.0580512 
0.0402516 0.0726352 0.0582335 0.040288 0.0725867 0.0588151 0.0402905 0.0725817 0.0589208 
0.0402994 0.0725732 0.059189 0.0402954 0.0726054 0.0594425 0.0403207 0.0725558 0.0600385 
0.0403193 0.0725524 0.0600625 0.040335 0.0725371 0.0606759 0.0403552 0.0725203 0.0612605 
0.040355 0.0725199 0.0612642 0.0403737 0.0725044 0.0618502 0.0403737 0.0725045 0.0618504 
0.0403741 0.0725062 0.0618563 0.0403874 0.0724897 0.0624869 0.0404048 0.0724747 0.0630841 
0.040419 0.072462 0.0636005 0.0404622 0.0724591 0.0641983 0.0404395 0.0724443 0.0643825 
0.0517746 0.0707478 0.0107823 0.0517517 0.0707682 0.010956 0.05163 0.0707664 0.0114979 
0.0516195 0.0707662 0.0115328 0.051503 0.0707801 0.0120692 0.0515031 0.0707788 0.012075 
0.0513661 0.0707947 0.0127058 0.051278 0.0707929 0.0130326 0.051261 0.0707821 0.0134016 
0.0511052 0.070827 0.0139169 0.0510162 0.0708569 0.0141525 0.0509155 0.0708477 0.0147854 
0.0509131 0.0708477 0.0147963 0.0508251 0.0708586 0.0152033 0.0507413 0.0708973 0.0154435 
0.0506431 0.070883 0.0160322 0.0506366 0.0708789 0.0160564 0.0504631 0.0708871 0.0166127 
0.0504349 0.0708614 0.0171542 0.0502821 0.0709248 0.0176799 0.050187 0.0709366 0.0181173 
0.0501061 0.0709516 0.0185043 0.0499985 0.07094 0.0187921 0.0499095 0.0709754 0.0193535 
0.0498835 0.0709428 0.0195622 0.0498684 0.0709398 0.0196574 0.049836 0.0709314 0.0197427 
0.0497346 0.0709923 0.0202125 0.0496429 0.0710041 0.0205915 0.0495791 0.0709726 0.0209455 
0.0495779 0.0709724 0.0209484 0.0494834 0.0710078 0.0214656 0.0493899 0.0710391 0.0219103 
0.0493668 0.0709834 0.0221312 0.0492147 0.0710308 0.022673 0.0491531 0.0710013 0.022989 
0.0490434 0.070972 0.023312 0.0487886 0.0710429 0.0240332 0.0487856 0.0710446 0.0240575 
0.0485581 0.0709825 0.0246583 0.0482633 0.0710157 0.0253362 0.0482541 0.0710236 0.0253556 
0.0482128 0.0710483 0.0254166 0.0482102 0.07105 0.0254235 0.0479893 0.070991 0.0262175 
0.0478861 0.0710598 0.0266507 0.0478536 0.0710649 0.0267441 0.0477159 0.0710772 0.0271033 
0.0476674 0.0710039 0.027872 0.0474856 0.0711104 0.028533 0.0474606 0.07108 0.0288755 
0.0473559 0.0711173 0.0293115 0.0473268 0.071313 0.0298523 0.0473332 0.0713232 0.0299126 
0.0473252 0.0713444 0.0300053 0.0471701 0.0715088 0.0305027 0.0471253 0.0715429 0.030585 
0.0468842 0.071735 0.0313003 0.0467483 0.0717805 0.0317087 0.0467332 0.071787 0.0317462 
0.0466067 0.0718968 0.0324344 0.0465439 0.071954 0.0326678 0.0464204 0.0720013 0.0334449 
0.0463777 0.0720021 0.0335979 0.0463427 0.0720063 0.033668 0.0462663 0.0720172 0.0338509 
0.0461022 0.0719454 0.0347307 0.0461022 0.0719452 0.0347318 0.0460993 0.0718916 0.0350134 
0.0459083 0.0718961 0.035708 0.0458929 0.0719025 0.0360546 0.0458373 0.0718979 0.0361935 
0.045721 0.0718906 0.0366356 0.0456248 0.0718056 0.037191 0.0456251 0.0718058 0.0371953 
0.0456339 0.0718126 0.0373236 0.0456337 0.0718125 0.0373251 0.0456021 0.0718073 0.0375035 
0.045343 0.071622 0.0382498 0.045343 0.0716208 0.0382548 0.0453413 0.0715222 0.0386665 
0.045079 0.0713692 0.0393026 0.0448499 0.0709963 0.0402013 0.0448748 0.0708872 0.0403403 
0.0448038 0.0706268 0.0417854 0.0448035 0.0705808 0.0418426 0.0444128 0.0704647 0.0428735 
0.0444127 0.0704648 0.0428737 0.0444071 0.0704964 0.0429126 0.0444083 0.0705229 0.0429771 
0.0444071 0.070523 0.0429798 0.0441101 0.0705435 0.0436548 0.0439622 0.0706031 0.0439369 
0.0439857 0.0705883 0.0442314 0.0440311 0.0706138 0.0444258 0.0440299 0.0706146 0.0444282 
0.0437295 0.0708122 0.0450108 0.0437083 0.0707902 0.0452381 0.043202 0.0709998 0.0459723 
0.0431037 0.070978 0.0462387 0.0431025 0.07098 0.0462786 0.0431025 0.0709801 0.0462793 
0.0431155 0.0709952 0.0464433 0.0428931 0.0712083 0.046901 0.0425466 0.0712539 0.0476255 
0.0423844 0.0713285 0.0479278 0.0422972 0.0713452 0.0485632 0.0422698 0.0713621 0.0486181 
0.0420937 0.0715411 0.0490753 0.0420955 0.0716057 0.0495317 0.0418424 0.0717697 0.0501462 
0.041834 0.0717784 0.0502533 0.0415121 0.072042 0.0511213 0.0414863 0.0720564 0.051152 
0.0412516 0.0722054 0.0518364 0.0411777 0.0722316 0.0519493 0.0409834 0.0722134 0.0523647 
0.0407024 0.0724255 0.0531305 0.0404911 0.0725274 0.0538884 0.0402766 0.0725488 0.054362 
0.0401884 0.072688 0.0551539 0.0401611 0.0726491 0.0555417 0.0401421 0.0726436 0.0557515 
0.040142 0.0726435 0.0557522 0.0402232 0.072634 0.0562667 0.0402349 0.0726422 0.0563453 
0.0401967 0.0726477 0.0569909 0.0402094 0.0726549 0.0570525 0.0402323 0.0726282 0.0576094 
0.0402509 0.0726257 0.0577479 0.040261 0.0726156 0.0580512 0.0402516 0.0726352 0.0582335 
0.040288 0.0725867 0.0588151 0.0402905 0.0725817 0.0589208 0.0402994 0.0725732 0.059189 
0.0402954 0.0726054 0.0594425 0.0403207 0.0725558 0.0600385 0.0403193 0.0725524 0.0600625 
0.040335 0.0725371 0.0606759 0.0403552 0.0725203 0.0612605 0.040355 0.0725199 0.0612642 
0.0403737 0.0725044 0.0618502 0.0403737 0.0725045 0.0618504 0.0403741 0.0725062 0.0618563 
0.0403874 0.0724897 0.0624869 0.0404048 0.0724747 0.0630841 0.040419 0.072462 0.0636005 
0.0404622 0.0724591 0.0641983 0.0404395 0.0724443 0.0643825 
LINES 2 370
219 218 217 216 215 214 213 212 211 210 209 208 207 206 205 204 203 202 201 200 199 198 197 196 195 194 193 192 191 190 189 188 187 186 185 184 183 182 181 180 179 178 177 176 175 174 173 172 171 170 169 168 167 166 165 164 163 162 161 160 159 158 157 156 155 154 153 152 151 150 149 148 147 146 145 144 143 142 141 140 139 138 137 136 135 134 133 132 131 130 129 128 127 126 125 124 123 122 121 120 119 118 117 116 115 114 113 112 111 110 109 108 107 106 105 104 103 102 101 100 99 98 97 96 95 94 93 92 91 90 89 88 87 86 85 84 83 82 81 80 79 78 77 76 75 74 73 72 71 70 69 68 67 66 65 64 63 62 61 60 59 58 57 56 55 54 53 52 51 50 49 48 47 46 45 44 43 42 41 40 39 38 37 36 35 34 33 32 31 30 29 28 27 26 25 24 23 22 21 20 19 18 17 16 15 14 13 12 11 10 9 8 7 6 5 4 3 2 1 0 
149 367 366 365 364 363 362 361 360 359 358 357 356 355 354 353 352 351 350 349 348 347 346 345 344 343 342 341 340 339 338 337 336 335 334 333 332 331 330 329 328 327 326 325 324 323 322 321 320 319 318 317 316 315 314 313 312 311 310 309 308 307 306 305 304 303 302 301 300 299 298 297 296 295 294 293 292 291 290 289 288 287 286 285 284 283 282 281 280 279 278 277 276 275 274 273 272 271 270 269 268 267 266 265 264 263 262 261 260 259 258 257 256 255 254 253 252 251 250 249 248 247 246 245 244 243 242 241 240 239 238 237 236 235 234 233 232 231 230 229 228 227 226 225 224 223 222 221 220 219 

POINT_DATA 368
FIELD FieldData 3
MaximumInscribedSphereRadius 1 368 double
0.00250024 0.00250025 0.00250318 0.00250317 0.0025076 0.00251129 0.00251738 0.00251781 0.00252702 
0.00252703 0.00252727 0.00253559 0.00251837 0.00251959 0.0025196 0.00251964 0.00251347 0.00250784 
0.00250776 0.00250675 0.00250924 0.00250923 0.00250924 0.00250986 0.00251353 0.00251832 0.0025199 
0.00251993 0.00252004 0.00251989 0.00251809 0.00251805 0.00251419 0.00251418 0.00251165 0.00251168 
0.0025103 0.00251042 0.00251292 0.00251196 0.00251131 0.00250781 0.00250738 0.00250873 0.00251481 
0.00251492 0.00251496 0.00251519 0.00251767 0.00251769 0.00251439 0.00251443 0.00251579 0.00251686 
0.00251686 0.00251712 0.00251318 0.00251115 0.00251102 0.00251132 0.00251377 0.00251194 0.00251225 
0.00251088 0.00251089 0.00251153 0.00250971 0.00251059 0.00251305 0.00251305 0.00251289 0.00251549 
0.00251632 0.00251761 0.00251716 0.00251272 0.00251242 0.00251202 0.00250954 0.00251128 0.0025096 
0.00250701 0.00250749 0.00250917 0.00251022 0.0025106 0.0025101 0.00250672 0.00245573 0.00242859 
0.00242561 0.00239965 0.00231807 0.00230535 0.00224086 0.0022796 0.00228724 0.00232135 0.00233528 
0.00238258 0.0024013 0.00241128 0.00242002 0.0024195 0.00238715 0.00237303 0.002279 0.00227817 
0.00224926 0.00212758 0.00214479 0.00215081 0.00215254 0.00215178 0.00215387 0.00217556 0.00216756 
0.00219122 0.00218456 0.00215471 0.0021465 0.00210648 0.00209439 0.00197063 0.00195246 0.00190296 
0.00182794 0.00179997 0.00181902 0.00181638 0.00180028 0.00177212 0.00156484 0.00150009 0.00150466 
0.00154309 0.00154316 0.0015519 0.00155131 0.00147803 0.00141433 0.00141451 0.00142905 0.00142911 
0.00143159 0.00143162 0.00144032 0.00146727 0.00156038 0.00139724 0.00143342 0.00143327 0.00139564 
0.00134959 0.00110689 0.00111218 0.00110067 0.00110067 0.00110284 0.00109422 0.00109361 0.000940331 
0.00100357 0.000991278 0.000973685 0.000973715 0.000981363 0.00100552 0.00103699 0.00108126 0.00108858 
0.00108879 0.00114179 0.00117422 0.00120281 0.00123259 0.00128799 0.00129644 0.0013637 0.00140191 
0.00146121 0.00145888 0.00148104 0.00147851 0.0013816 0.00136848 0.00132666 0.00124651 0.001221 
0.00124275 0.00127353 0.00130337 0.00132427 0.00132442 0.00133859 0.0013378 0.00137904 0.00137488 
0.00134824 0.00135477 0.00136335 0.00137939 0.00135284 0.00135143 0.00134726 0.00136019 0.00133937 
0.0013416 0.00139655 0.00136517 0.00136549 0.00141212 0.00141211 0.00141202 0.00137158 0.0014254 
0.00137733 0.00136806 0.00136096 0.0012732 0.00129228 0.00129043 0.0012936 0.00134548 0.00134543 
0.00128974 0.00130263 0.00131209 0.00128081 0.00129728 0.00126661 0.00126667 0.0012678 0.00129354 
0.00127752 0.00127807 0.00129681 0.00130393 0.00127957 0.00127886 0.00127387 0.00130376 0.00127211 
0.00128757 0.00129215 0.00129051 0.00127679 0.00128041 0.00129863 0.00129886 0.00126794 0.00127664 
0.00127074 0.00124832 0.00127461 0.00124725 0.00123687 0.00123422 0.00118436 0.00124982 0.00125278 
0.00125938 0.00125921 0.00132498 0.00139389 0.00141002 0.00142504 0.00151562 0.00170153 0.00179273 
0.00191417 0.00212762 0.00214835 0.00216599 0.00222341 0.00222486 0.00223247 0.00222014 0.00221792 
0.00219885 0.00221045 0.00220117 0.0022111 0.00221081 0.00220306 0.00217999 0.00218006 0.00219721 
0.00217709 0.00217864 0.00215311 0.0021121 0.00205228 0.00205212 0.0020473 0.00204701 0.00201105 
0.00184837 0.00184737 0.00176572 0.00159132 0.00139321 0.00134959 0.00110689 0.00111218 0.00110067 
0.00110067 0.00110284 0.00109422 0.00109361 0.000940331 0.00100357 0.000991278 0.000973685 0.000973715 
0.000981363 0.00100552 0.00103699 0.00108126 0.00108858 0.00108879 0.00114179 0.00117422 0.00120281 
0.00123259 0.00128799 0.00129644 0.0013637 0.00140191 0.00146121 0.00145888 0.00148104 0.00147851 
0.0013816 0.00136848 0.00132666 0.00124651 0.001221 0.00124275 0.00127353 0.00130337 0.00132427 
0.00132442 0.00133859 0.0013378 0.00137904 0.00137488 0.00134824 0.00135477 0.00136335 0.00137939 
0.00135284 0.00135143 0.00134726 0.00136019 0.00133937 0.0013416 0.00139655 0.00136517 0.00136549 
0.00141212 0.00141211 0.00141202 0.00137158 0.0014254 0.00137733 0.00136806 0.00136096 
EdgeArray 2 368 int
2523 2523 759 2513 2514 2514 2511 2512 139 
139 41 41 47 47 40 59 125 125 
129 125 129 129 133 133 148 148 182 
193 193 197 143 197 233 233 238 238 
254 254 296 296 322 322 320 323 390 
396 402 402 408 408 531 531 525 525 
580 580 508 508 569 529 571 571 572 
542 675 675 732 732 728 728 741 741 
742 742 279 638 902 902 894 894 624 
624 857 857 760 760 1006 1012 1059 1059 
1058 1058 1010 832 523 1009 523 523 720 
720 1150 1150 1118 1118 640 640 1288 1288 
809 1288 809 809 1289 1289 1293 1296 1293 
1203 1204 1204 1375 1375 1368 1368 1378 1440 
1487 1487 1490 1487 1490 1490 1474 1474 1498 
1497 1508 1508 1507 1508 1507 1507 1384 1384 
1653 1653 1643 1643 1688 1688 1693 1693 1663 
1663 1666 1666 1762 1660 1764 1764 1682 1682 
1780 1780 1515 923 1469 1763 1886 1584 1669 
1584 1975 1972 1495 1495 1887 1887 1731 1735 
1903 1735 1903 2030 1888 1888 2066 2066 2016 
2016 2020 2068 2005 2020 2069 2079 1924 2079 
1093 2151 1093 965 965 1867 2242 2163 2263 
2163 2239 2279 2146 2146 2332 2332 2344 2332 
2344 2344 2370 2370 2395 2395 2372 2372 2399 
2399 2402 2402 2465 2465 2456 2456 2454 2454 
2426 2426 2416 2416 2412 2412 2413 1754 2298 
2298 1114 2323 2246 2246 2088 2132 2174 2132 
2064 2064 2171 2171 2188 2188 2184 2189 1895 
1895 2124 2124 2127 2127 1809 1809 1670 1670 
1732 1732 1835 1732 1835 1835 1708 1835 1708 
1708 1747 1747 1806 1747 1806 1806 1568 1806 
1568 1568 1802 1568 1802 1802 1725 1725 1283 
1283 1570 1570 1621 1621 1632 1621 1632 1632 
1573 1573 1729 1729 1727 1726 1899 1899 1823 
1899 1823 1823 1909 1909 1880 1909 1880 1880 
1818 1519 1939 1983 1983 1983 1982 1983 1982 
1982 2004 2056 2058 2059 2058 2060 2060 2060 
2061 2060 2061 2061 2044 2044 1929 1929 1875 
1874 1819 1743 1741 1743 1740 1740 1600 1600 
1521 1521 1526 1451 1357 1357 1344 1329 1242 
1251 1242 1241 1135 1135 1110 1110 943 943 
954 954 850 850 822 826 822 822 533 
605 757 757 717 714 710 710 421 707 
617 617 602 616 602 602 563 563 502 
502 358 498 358 358 451 451 383 383 
344 378 345 345 310 310 228 307 229 
229 225 229 225 225 166 166 110 110 
21 21 255 255 2468 2468 2053 2053 2572 
2572 97 97 95 98 98 98 99 99 
114 114 153 157 200 200 123 123 210 
210 203 203 231 262 262 262 265 265 
277 277 150 327 241 241 413 413 416 
416 444 444 447 447 484 484 487 486 
487 483 483 489 513 491 512 512 555 
555 475 557 417 557 560 560 595 595 
651 651 596 596 632 632 690 690 692 
692 694 669 773 773 775 776 775 770 
750 750 782 661 779 779 598 784 814 
814 869 869 877 880 941 874 863 863 
992 865 992 992 795 991 866 1081 261 
261 1103 551 313 313 864 988 1171 864 
1226 1226 1262 1262 1305 1307 1305 1306 1306 
1237 1237 1260 1426 1426 1424 1426 1424 1424 
1326 1326 1317 1411 1414 1317 1417 1420 1546 
1546 1548 1546 1548 1548 1544 1548 1544 1544 
1400 1400 1560 1400 1560 1560 1622 1622 1629 
1629 1573 1573 1729 1729 1727 1726 1899 1899 
1823 1899 1823 1823 1909 1909 1880 1909 1880 
1880 1818 1519 1939 1983 1983 1983 1982 1983 
1982 1982 2004 2056 2058 2059 2058 2060 2060 
2060 2061 2060 2061 2061 2044 2044 1929 1929 
1875 1874 1819 1743 1741 1743 1740 1740 1600 
1600 1521 1521 1526 1451 1357 1357 1344 1329 
1242 1251 1242 1241 1135 1135 1110 1110 943 
943 954 954 850 850 822 826 822 822 
533 605 757 757 717 714 710 710 421 
707 617 617 602 616 602 602 563 563 
502 502 358 498 358 358 451 451 383 
383 344 378 345 345 310 310 228 307 
229 229 225 229 225 225 166 166 110 
110 21 21 255 255 2468 2468 
EdgePCoordArray 1 368 double
0 0.004 0 0.832 0 0 0 0.768 0 
0.976 0 0 0 0.952 0.232 0.996 0 0 
0 0 0 0.996 0.116 0 0 0 0 
0 0 0.976 0 0.004 0 0 0 0 
0 0.996 0 0 0 0 0 0.128 0 
0 0.812 0.932 0 0 0 0 0 0 
0.988 0 0 0.096 0.024 0 0 0 0.984 
0 0.984 0 0 0.972 0 0.992 0 0 
0 0 0 0 0 0 0.308 0 0 
0 0.84 0.808 0.928 0.828 0.552 0 0 0.872 
0.8 0.084 0 0 0 0.316 0.844 0.792 0.44 
0.64 0.508 0.388 0.516 0.768 0.464 0 0 0.972 
0 0 0 0 0 0 0 0 0 
0 0 0 0.128 0 0.968 0 0.872 0.652 
0 0 0 0.908 0 0 0 0 0 
0 0.992 0 0.992 0 0 0.988 0 0.976 
0 0.996 0 0 0 0 0 0.996 0 
0 0 0.032 0 0.996 0 0 0.996 0 
0.968 0.584 0 0.996 0 0.216 0.188 0.84 0 
0.996 0 0 0 0.868 0.956 0.88 0 0 
0 0.304 0 0.096 0.2 0.384 0 0 0 
0 0 0.44 0 0.964 0 0.124 0 0.884 
0 0.752 0 0 0 0.732 0 0 0 
0.976 0 0 0.996 0 0.968 0 0 0 
0 0 0 0 0 0 0.048 0 0 
0 0.312 0 0 0 0 0.024 0 0 
0 0.972 0 0 0 0 0 0 0.396 
0.728 0.08 0.804 0 0 0.952 0.944 0 0 
0 0 0 0 0 0.88 0 0.124 0.196 
0 0.004 0 0.216 0 0 0.208 0.732 0 
0.868 0 0.776 0.456 0 0.96 0 0.108 0.952 
0 0 0.38 0.856 0.308 0.116 0 0.996 0 
0 0.732 0.316 0.656 0 0.968 0 0.992 0 
0 0.988 0 0 0 0 0 0.032 0 
0.996 0 0 0.996 0 0.968 0.584 0 0.996 
0 0.216 0.188 0.84 0 0.996 0 0 0 
0.868 0.956 0.88 0 0 0 0.304 0 0.096 
0.2 0.384 0 0 0 0 0 0.44 0 
0.964 0 0.124 0 0.884 0 0.752 0 0 
0 0.732 0 0 0 0.976 0 0 0.996 
0 0.968 0 0 0 0 0 0 
