# vtk DataFile Version 3.0
vtk output
ASCII
DATASET POLYDATA
POINTS 1588 float
72.4506 109.767 194.837 72.4503 109.768 194.836 72.4501 109.768 194.835 
72.444 109.775 194.824 72.3153 109.908 194.532 72.247 109.971 194.387 
72.1906 110.039 194.243 71.8825 110.345 193.484 71.7829 110.482 193.171 
71.5387 110.793 192.288 71.3393 111.029 191.779 71.2728 111.136 191.555 
71.0882 111.352 191.082 71.0187 111.444 190.88 70.9441 111.535 190.672 
70.9439 111.535 190.671 70.9018 111.583 190.549 70.7701 111.734 190.208 
70.6071 111.898 189.892 70.607 111.898 189.892 70.6001 111.908 189.872 
70.4112 112.141 189.371 70.4028 112.161 189.305 70.3837 112.185 189.252 
70.282 112.353 188.859 70.2253 112.433 188.637 70.1095 112.546 188.367 
70.1053 112.551 188.357 69.9661 112.702 187.989 69.9465 112.723 187.937 
69.8249 112.881 187.581 69.8211 112.885 187.571 69.7443 112.988 187.321 
69.6591 113.121 187.028 69.6498 113.136 186.997 69.6033 113.226 186.776 
69.5848 113.288 186.607 69.5828 113.295 186.583 69.5563 113.447 186.155 
69.5544 113.453 186.137 69.5198 113.483 186.066 69.5197 113.483 186.066 
69.5141 113.488 186.055 69.3326 113.686 185.629 69.3142 113.713 185.572 
69.2052 113.845 185.261 69.0925 114.01 184.902 69.0163 114.102 184.687 
68.9455 114.219 184.432 68.8394 114.352 184.122 68.8207 114.379 184.066 
68.7111 114.51 183.77 68.6435 114.583 183.588 68.6357 114.591 183.568 
68.5485 114.687 183.345 68.5405 114.695 183.325 68.4314 114.806 183.028 
68.3701 114.863 182.864 68.2832 114.943 182.673 68.1411 115.063 182.375 
68.1309 115.071 182.356 68.0099 115.164 182.11 68.0096 115.164 182.11 
67.983 115.189 182.048 67.8082 115.327 181.672 67.7947 115.337 181.644 
67.778 115.347 181.61 67.7339 115.377 181.513 67.6324 115.461 181.205 
67.5367 115.523 180.92 67.4316 115.594 180.578 67.4276 115.596 180.569 
67.3745 115.624 180.444 67.2363 115.706 180.003 67.0749 115.796 179.52 
66.9217 115.868 179.094 66.8863 115.885 178.994 66.8184 115.922 178.825 
66.6996 115.982 178.502 66.563 116.04 178.146 66.4411 116.094 177.854 
66.3285 116.134 177.597 66.2777 116.148 177.465 66.2637 116.149 177.425 
66.2595 116.15 177.412 66.1372 116.185 177.092 66.099 116.195 176.982 
66.0466 116.194 176.809 65.9496 116.2 176.421 65.8907 116.199 176.244 
65.7953 116.206 175.903 65.7244 116.197 175.667 65.6556 116.195 175.408 
65.647 116.195 175.371 65.5345 116.174 174.953 65.4958 116.17 174.827 
65.4874 116.169 174.799 65.3513 116.146 174.32 65.3177 116.094 173.979 
65.2971 116.005 173.497 65.1417 115.947 172.933 65.0996 115.851 172.512 
65.0835 115.813 172.375 65.0486 115.746 172.085 64.9919 115.611 171.63 
64.9761 115.567 171.504 64.9646 115.494 171.283 64.9412 115.344 170.888 
64.9297 115.233 170.648 64.9194 115.147 170.43 64.909 115.069 170.266 
64.9089 115.057 170.242 64.876 114.962 170.011 64.8635 114.842 169.76 
64.8421 114.761 169.577 64.8093 114.523 169.091 64.8141 114.427 168.918 
64.8122 114.292 168.645 64.8129 114.264 168.594 64.8118 114.252 168.569 
64.8107 114.238 168.538 64.8334 113.902 167.907 64.8336 113.727 167.599 
64.8381 113.603 167.365 64.8416 113.543 167.259 64.8567 113.427 167.05 
64.8758 113.252 166.76 64.9006 113.129 166.532 64.9362 113.019 166.348 
64.9891 112.845 166.034 65.0071 112.806 165.967 65.1438 112.501 165.48 
65.1538 112.481 165.444 65.1613 112.464 165.415 65.1659 112.453 165.396 
65.1668 112.451 165.392 65.2397 112.291 165.115 65.2405 112.289 165.112 
65.3358 112.074 164.792 65.4099 111.938 164.575 65.4453 111.853 164.447 
65.4454 111.853 164.447 65.4576 111.822 164.402 65.5737 111.571 164.038 
65.5743 111.57 164.036 65.628 111.451 163.886 65.6915 111.329 163.729 
65.7104 111.282 163.661 65.7293 111.245 163.61 65.9358 110.916 163.189 
66.1278 110.641 162.883 66.1797 110.59 162.82 66.4394 110.344 162.517 
66.6639 110.148 162.291 66.8611 109.972 162.115 66.8861 109.951 162.095 
67.0809 109.783 161.947 67.1839 109.695 161.878 67.281 109.619 161.81 
67.478 109.457 161.679 67.7207 109.253 161.544 67.9088 109.096 161.45 
68.1911 108.864 161.326 68.219 108.839 161.312 68.5599 108.553 161.165 
68.9532 108.19 161.045 69.0834 108.074 161.014 69.1905 107.963 160.999 
69.2534 107.899 160.992 69.298 107.854 160.984 69.4765 107.675 160.954 
69.5058 107.646 160.951 69.7669 107.416 160.928 69.9188 107.284 160.926 
69.9913 107.23 160.918 70.3818 106.908 160.91 70.3823 106.908 160.91 
70.4453 106.835 160.915 70.9012 106.402 160.955 70.9036 106.399 160.955 
71.0159 106.278 160.962 71.5004 105.865 161.011 71.7629 105.613 161.047 
71.9292 105.462 161.072 71.9302 105.461 161.072 72.048 105.374 161.092 
72.0753 105.353 161.095 72.1287 105.32 161.1 72.2766 105.227 161.118 
72.4343 105.119 161.141 72.7391 104.91 161.199 72.8728 104.806 161.231 
72.9064 104.784 161.239 73.0778 104.657 161.285 73.0944 104.644 161.289 
73.1226 104.624 161.295 73.2671 104.51 161.331 73.4638 104.364 161.387 
73.6021 104.253 161.422 73.6601 104.2 161.44 73.9334 103.98 161.525 
73.9477 103.965 161.53 74.0244 103.892 161.551 74.0331 103.885 161.553 
74.1565 103.763 161.594 74.3049 103.622 161.631 74.3793 103.555 161.653 
74.5597 103.383 161.702 74.692 103.264 161.74 74.9851 103.018 161.825 
75.0207 102.994 161.833 75.0945 102.948 161.85 75.4291 102.678 161.954 
75.9004 102.34 162.075 75.9389 102.316 162.085 76.4881 101.928 162.212 
76.6791 101.799 162.246 76.7127 101.775 162.255 76.7517 101.747 162.263 
76.9538 101.602 162.305 77.1362 101.476 162.338 77.3329 101.328 162.365 
77.6322 101.105 162.413 77.7753 100.994 162.43 77.8077 100.97 162.435 
77.9087 100.894 162.451 78.2419 100.651 162.487 78.3081 100.61 162.492 
78.3098 100.609 162.492 78.5216 100.469 162.523 78.6639 100.376 162.538 
78.9139 100.218 162.564 78.9395 100.202 162.568 79.2926 99.9868 162.613 
79.3506 99.9514 162.619 79.4718 99.8756 162.639 79.846 99.6329 162.69 
79.8665 99.6204 162.694 80.2031 99.3895 162.747 80.2975 99.3318 162.77 
80.3608 99.2883 162.786 80.5858 99.1129 162.857 80.8658 98.9098 162.969 
81.2047 98.6791 163.08 81.2048 98.679 163.08 81.2472 98.6534 163.095 
81.5667 98.4761 163.204 82.0508 98.2396 163.344 82.0515 98.2393 163.344 
82.0638 98.2341 163.347 82.357 98.0841 163.418 82.3681 98.0788 163.421 
82.7753 97.8834 163.516 83.2009 97.6733 163.577 83.6467 97.4817 163.613 
83.7235 97.4395 163.622 84.2929 97.2029 163.671 84.5275 97.1197 163.687 
84.5276 97.1197 163.687 84.5286 97.119 163.687 84.9131 96.9066 163.686 
85.227 96.7128 163.661 85.5055 96.5451 163.624 85.5934 96.4967 163.619 
86.0942 96.2207 163.549 86.0956 96.2201 163.549 86.1277 96.2047 163.543 
86.4459 96.0582 163.477 86.5932 95.9801 163.451 87.0418 95.758 163.352 
87.0978 95.7314 163.339 87.1293 95.7156 163.331 87.2759 95.6405 163.286 
87.4991 95.5181 163.217 87.502 95.5164 163.216 87.571 95.4753 163.198 
87.8825 95.2902 163.096 88.0827 95.1667 163.023 88.3844 94.9822 162.893 
88.5771 94.8734 162.828 88.6475 94.8345 162.801 89.0623 94.5899 162.615 
89.2224 94.5056 162.555 89.5139 94.3422 162.417 89.5818 94.3049 162.389 
89.9354 94.1015 162.222 90.1905 93.9677 162.098 90.4377 93.8404 161.972 
90.5047 93.8043 161.939 90.6849 93.7075 161.844 91.0026 93.5403 161.69 
91.4177 93.3139 161.445 91.4493 93.2972 161.429 91.4769 93.284 161.415 
91.8695 93.0832 161.184 92.0042 93.0097 161.093 92.1891 92.9122 160.973 
92.332 92.8396 160.89 92.5052 92.7406 160.774 92.5536 92.7145 160.743 
92.6822 92.6426 160.655 92.7622 92.5989 160.606 93.1158 92.379 160.361 
93.1207 92.3762 160.358 93.1757 92.3437 160.323 93.228 92.3131 160.289 
93.5574 92.1079 160.05 93.6143 92.0766 160.008 93.7554 92.0024 159.906 
93.7923 91.982 159.877 93.9664 91.8707 159.739 94.014 91.8409 159.703 
94.2456 91.7123 159.51 94.5768 91.5212 159.23 94.7856 91.3694 159.043 
94.917 91.2995 158.932 95.1976 91.12 158.676 95.3403 91.0301 158.542 
95.6072 90.8716 158.3 95.6078 90.8712 158.299 95.7423 90.7819 158.164 
95.8396 90.7204 158.069 95.9378 90.6578 157.965 96.0986 90.5597 157.805 
96.2759 90.4542 157.613 96.4847 90.312 157.363 96.7533 90.129 157.027 
97.0453 89.8963 156.622 97.0611 89.886 156.602 97.3634 89.6684 156.173 
97.5848 89.4802 155.819 97.8207 89.2878 155.437 97.9027 89.2095 155.278 
97.9033 89.2091 155.277 98.0362 89.101 155.049 98.2228 88.9586 154.701 
98.2389 88.95 154.672 98.2466 88.9459 154.658 98.4541 88.8403 154.334 
98.5108 88.8141 154.243 98.5869 88.7754 154.109 98.7091 88.7034 153.893 
98.7186 88.6979 153.875 98.7254 88.6945 153.863 98.8826 88.6019 153.565 
98.9847 88.5212 153.336 99.0271 88.486 153.242 99.1359 88.4049 152.992 
99.2523 88.3012 152.713 99.3636 88.2228 152.478 99.4346 88.1658 152.331 
99.5118 88.1083 152.157 99.7282 87.9705 151.726 99.7299 87.9693 151.721 
99.7684 87.944 151.626 100.01 87.7613 151.053 100.012 87.7583 151.044 
100.122 87.6647 150.744 100.158 87.6318 150.634 100.214 87.5912 150.479 
100.234 87.5823 150.432 100.445 87.4772 149.884 100.485 87.4599 149.765 
100.623 87.4362 149.436 100.627 87.4337 149.423 100.861 87.3407 148.793 
101.074 87.2352 148.114 101.114 87.2019 147.987 101.155 87.1643 147.824 
101.25 87.0799 147.457 101.289 87.0397 147.259 101.343 86.9819 147.007 
101.35 86.9736 146.978 101.363 86.9584 146.916 101.447 86.8653 146.468 
101.47 86.8344 146.289 101.498 86.7739 146.036 101.515 86.7533 145.932 
101.524 86.7429 145.873 101.567 86.6592 145.477 101.577 86.6451 145.397 
101.592 86.6207 145.242 101.634 86.5514 144.888 101.64 86.5376 144.796 
101.654 86.5266 144.686 101.665 86.5148 144.597 101.665 86.514 144.592 
101.711 86.4743 144.315 101.747 86.4514 144.048 101.777 86.44 143.867 
101.789 86.4098 143.648 101.793 86.3824 143.367 101.781 86.3623 143.143 
101.737 86.3249 142.782 101.737 86.3249 142.782 101.735 86.3231 142.761 
101.718 86.3044 142.54 101.717 86.2972 142.467 101.741 86.1731 141.929 
101.741 86.1728 141.927 101.757 86.0459 141.373 101.757 86.041 141.354 
101.799 85.9039 140.842 101.8 85.9026 140.837 101.808 85.8677 140.701 
101.808 85.8677 140.701 101.81 85.8638 140.687 101.839 85.7572 140.219 
101.839 85.7502 140.189 101.843 85.7245 140.06 101.904 85.5776 139.518 
[...]
POINT_DATA 1588
FIELD FieldData 3
MaximumInscribedSphereRadius 1 1588 double
6.6847 6.68471 6.68446 6.682 6.67284 6.64581 6.61113 6.45085 6.39298 
6.26182 6.23569 6.22694 6.2218 6.21478 6.20971 6.20969 6.2069 6.19942 
6.19477 6.19476 6.19361 6.17247 6.16959 6.16727 6.14387 6.13126 6.11991 
6.11931 6.09694 6.09378 6.08181 6.08124 6.06661 6.05447 6.05292 6.0424 
6.03604 6.03485 6.01114 6.01018 6.00347 6.00346 6.00208 5.96569 5.96198 
5.93742 5.91943 5.91044 5.89997 5.88979 5.88672 5.86624 5.85676 5.85548 
5.83526 5.83362 5.81368 5.8061 5.78892 5.77158 5.77046 5.75915 5.7591 
5.75516 5.73108 5.7299 5.72776 5.72096 5.70009 5.67632 5.64868 5.64793 
5.63826 5.60899 5.57492 5.55724 5.55408 5.54568 5.53748 5.53785 5.53174 
5.53349 5.53445 5.5333 5.53291 5.52748 5.52378 5.51481 5.49555 5.48883 
5.47575 5.46315 5.45083 5.44932 5.42812 5.42353 5.42212 5.4039 5.36887 
5.32274 5.3082 5.27737 5.26806 5.24583 5.21771 5.21105 5.19183 5.16312 
5.14612 5.13083 5.11604 5.11418 5.10693 5.0863 5.0757 5.04124 5.02294 
5.00408 5.00081 4.99968 4.99814 4.96406 4.96283 4.9697 4.97241 4.97623 
4.99237 5.00486 5.00786 5.02315 5.02509 5.04245 5.0447 5.04562 5.0463 
5.04651 5.06373 5.06397 5.09439 5.11961 5.1344 5.13444 5.13953 5.19018 
5.19048 5.21532 5.24299 5.25734 5.26659 5.32113 5.36852 5.36972 5.35801 
5.35421 5.35534 5.35499 5.35518 5.35435 5.35137 5.34105 5.3274 5.32259 
5.32399 5.32372 5.32007 5.32553 5.33085 5.33248 5.33263 5.33046 5.3228 
5.32175 5.31169 5.30555 5.29874 5.2607 5.26067 5.25724 5.25196 5.25195 
5.25 5.2596 5.27796 5.29503 5.29511 5.3063 5.30826 5.3115 5.32385 
5.33831 5.37805 5.39772 5.40347 5.43365 5.43613 5.44052 5.462 5.49412 
5.51655 5.52634 5.57723 5.58031 5.58909 5.58994 5.60199 5.61217 5.61569 
5.61662 5.61903 5.61517 5.61405 5.61148 5.60274 5.60707 5.60933 5.61641 
5.62815 5.62915 5.6301 5.63584 5.64651 5.65761 5.67168 5.67565 5.67691 
5.67962 5.69022 5.69345 5.69348 5.69747 5.70085 5.70539 5.70555 5.71365 
5.71458 5.71338 5.7142 5.71407 5.70679 5.70164 5.69405 5.65465 5.60118 
5.54559 5.54556 5.53854 5.49262 5.4489 5.44884 5.44792 5.41808 5.41679 
5.36871 5.32312 5.29252 5.28388 5.25126 5.25318 5.25317 5.25309 5.22928 
5.20351 5.18701 5.18167 5.14954 5.14947 5.14786 5.13786 5.13014 5.12111 
5.12246 5.12296 5.12557 5.12881 5.12881 5.12895 5.12705 5.13366 5.14766 
5.15397 5.15564 5.17168 5.17895 5.18599 5.1872 5.18873 5.18599 5.19196 
5.19166 5.18957 5.1955 5.21179 5.21322 5.21398 5.22015 5.22433 5.23213 
5.23775 5.24176 5.24347 5.24854 5.2508 5.26309 5.26321 5.26405 5.26529 
5.27191 5.27244 5.27292 5.27328 5.27415 5.27581 5.27119 5.27368 5.27423 
5.27348 5.2778 5.28117 5.283 5.28301 5.2856 5.2905 5.28968 5.29008 
5.28674 5.28812 5.28178 5.28791 5.28859 5.30015 5.32531 5.35441 5.36512 
5.36519 5.38329 5.41452 5.41584 5.4162 5.4199 5.42212 5.42621 5.43504 
5.43553 5.43575 5.43986 5.44269 5.44308 5.44107 5.44275 5.44311 5.44344 
5.43978 5.42438 5.42412 5.41845 5.40286 5.40247 5.38818 5.38164 5.37072 
5.3649 5.3019 5.29021 5.26087 5.25941 5.21457 5.18833 5.18746 5.18495 
5.18455 5.18668 5.19308 5.1934 5.1935 5.20038 5.20339 5.21291 5.21549 
5.21574 5.2296 5.23439 5.24031 5.25773 5.26173 5.26465 5.26857 5.26864 
5.27742 5.28679 5.29316 5.28982 5.2866 5.28136 5.26879 5.26879 5.26838 
5.26125 5.2581 5.2129 5.21275 5.15705 5.15538 5.10538 5.10484 5.08665 
5.08663 5.08477 5.04513 5.04233 5.02922 4.96957 4.93303 4.93258 4.90971 
4.88285 4.8577 4.83885 4.81702 4.817 4.81128 4.78547 4.75311 4.74594 
4.73078 4.73033 4.65922 4.60858 4.5812 4.54672 4.48615 4.45096 4.44121 
4.4226 4.41906 4.41762 4.37847 4.37817 4.26823 4.24746 4.1773 4.16192 
4.12134 4.07354 3.99227 3.98714 3.98026 3.91982 3.86737 3.83322 3.8037 
3.80355 3.77716 3.78486 3.7966 3.79721 3.80413 3.82536 3.84709 3.84764 
3.8727 3.90863 3.94851 3.95142 3.95245 3.98187 4.01554 4.01837 4.06147 
4.07095 4.15323 4.24595 4.42874 4.44751 4.53602 4.62679 4.64952 4.65919 
4.69519 4.69831 4.71843 4.74334 4.7437 4.77267 4.84933 4.86618 4.8549 
4.76921 4.76798 4.61535 4.60745 4.57514 4.51191 4.18738 4.13957 4.05147 
3.94495 4.21279 4.45085 4.47409 4.51961 5.06098 5.45027 5.57064 5.56665 
5.52236 5.38527 5.26597 5.2562 5.05803 4.965 4.94055 4.92691 4.86421 
4.86391 4.85349 4.80764 4.78727 4.76752 4.76607 4.76204 4.75505 4.75503 
4.74886 4.74027 4.72949 4.71845 4.68082 4.63921 4.58019 4.53663 4.52563 
4.40118 4.37623 4.35278 4.34023 4.27502 4.21373 4.20147 4.18521 4.17382 
4.17227 4.14853 4.14694 4.13379 4.13243 4.0945 4.07142 4.06268 4.05463 
4.06148 4.06283 4.06459 4.07159 4.07881 4.08379 4.08596 4.08809 4.09772 
4.09853 4.10628 4.11155 4.11304 4.11562 4.11529 4.11572 4.11431 4.09991 
4.09956 4.0926 4.08618 4.08615 4.07875 4.08042 4.08824 4.09163 4.11798 
4.14662 4.15756 4.15819 4.17406 4.17401 4.17323 4.14434 4.08474 4.05374 
4.05291 3.9936 3.94869 3.96524 3.96837 3.96842 3.97968 3.98632 4.04758 
4.05923 4.12759 4.1369 4.1495 4.17292 4.18825 4.194 4.2406 4.25507 
4.28072 4.32108 4.3529 4.35293 4.3556 4.37646 4.38412 4.39887 4.40609 
4.40099 4.41934 4.42504 4.42418 4.39921 4.38505 4.37738 4.37297 4.3703 
4.38025 4.37682 4.3737 4.36821 4.36762 4.36537 4.35518 4.35758 4.35758 
4.35708 4.35732 4.37027 4.38297 4.38853 4.40814 4.43203 4.46203 4.46949 
4.49667 4.51103 4.53256 4.55475 4.55579 4.56997 4.56993 4.55966 4.55966 
4.55887 4.53995 4.52367 4.52361 4.51824 4.49765 4.49002 4.45187 4.44613 
4.24158 4.24137 4.21514 4.11921 4.03365 3.97076 3.96276 3.94792 3.94745 
3.93174 3.93076 3.91333 3.9094 3.90153 3.89708 3.89396 3.89383 3.89811 
3.89812 3.89877 3.90183 3.91206 3.91638 3.91605 3.90828 3.90284 3.90145 
3.8937 3.89363 3.89167 3.87215 3.86897 3.83462 3.81859 3.78058 3.77964 
3.76716 3.75821 3.75682 3.72536 3.72536 3.72476 3.71636 3.75513 3.79908 
3.80755 3.81765 3.82616 3.82643 3.86064 3.88993 3.89005 3.89713 3.93007 
4.00011 1.67144 1.6699 1.66963 1.66286 1.6616 1.65553 1.65103 1.63605 
1.62517 1.61888 1.60237 1.55794 1.56325 1.57308 1.575 1.58298 1.60177 
1.60891 1.60907 1.60985 1.62516 1.64343 1.64203 1.64097 1.64809 1.64834 
1.67285 1.67349 1.69091 1.694 1.69349 1.69113 1.68866 1.69141 1.69435 
1.69124 1.69999 1.70086 1.71873 1.72249 1.72214 1.73432 1.73597 1.73536 
1.73433 1.73894 1.74593 1.75118 1.7523 1.75428 1.75781 1.77583 1.77743 
1.77746 1.77916 1.7849 1.79364 1.80234 1.80628 1.80453 1.80157 1.77815 
1.76969 1.76433 1.7415 1.7368 1.73455 1.733 1.71396 1.71441 1.71384 
1.68403 1.67718 1.6772 1.67612 1.66059 1.65807 1.65222 1.64675 1.6426 
1.64033 1.62005 1.62164 1.60152 1.59913 1.59448 1.59749 1.61305 1.61307 
1.61521 1.61574 1.63025 1.6327 1.64016 1.64036 1.64711 1.65279 1.65303 
1.65155 1.65697 1.65666 1.65576 1.65663 1.6593 1.66346 1.67441 1.67538 
1.67561 1.7118 1.7265 1.72752 1.74601 1.76199 1.78309 1.79017 1.80081 
1.83494 1.85168 1.85519 1.85571 1.85724 1.85411 1.84854 1.84688 1.84487 
1.83778 1.8378 1.84428 1.84427 1.83725 1.83724 1.83156 1.83006 1.8276 
1.82754 1.82342 1.82483 1.82709 1.81696 1.817 1.81887 1.81753 1.81755 
1.82046 1.83632 1.82894 1.8259 1.83373 1.83916 1.8395 1.8395 1.81879 
1.82429 1.81771 1.82692 1.82901 1.83813 1.85201 1.85582 1.86627 1.87392 
1.89543 1.90419 1.91278 1.92178 1.9258 1.95123 1.95373 1.97093 1.97429 
1.9745 1.97691 1.97698 1.97586 1.97848 1.97811 1.97642 1.96613 1.95649 
1.93389 1.93081 1.91474 1.90455 1.89544 1.89056 1.87299 1.85661 1.82955 
1.82153 1.75306 1.67202 1.6659 1.62762 1.51843 1.39498 1.39018 1.2084 
1.20823 1.19439 1.05545 1.05526 1.04384 1.03201 1.03358 1.05468 1.06657 
1.08928 1.17114 1.203 1.24227 1.29007 1.38934 1.3903 1.47554 1.63918 
1.63983 1.69309 1.74762 1.78237 1.93172 2.09419 2.33733 2.94225 3.10663 
3.10952 3.21567 3.45623 3.69132 3.70112 3.95427 3.98203 4.15201 4.26939 
4.29331 4.48019 4.57684 4.58121 4.64355 4.65544 4.79754 4.86175 4.9365 
5.06013 4.97039 4.89152 4.86611 4.85349 4.80764 4.78727 4.76752 4.76607 
4.76204 4.75505 4.75503 4.74886 4.74027 4.72949 4.71845 4.68082 4.63921 
4.58019 4.53663 4.52563 4.40118 4.37623 4.35278 4.34023 4.27502 4.21373 
4.20147 4.18521 4.17382 4.17227 4.14853 4.14694 4.13379 4.13243 4.0945 
4.07142 4.06268 4.05463 4.06148 4.06283 4.06459 4.07159 4.07881 4.08379 
4.08596 4.08809 4.09772 4.09853 4.10628 4.11155 4.11304 4.11562 4.11529 
4.11572 4.11431 4.09991 4.09956 4.0926 4.08618 4.08615 4.07875 4.08042 
4.08824 4.09163 4.11798 4.14662 4.15756 4.15819 4.17406 4.17401 4.17323 
4.14434 4.08474 4.05374 4.05291 3.9936 3.94869 3.96524 3.96837 3.96842 
3.97968 3.98632 4.04758 4.05923 4.12759 4.1369 4.1495 4.17292 4.18825 
4.194 4.2406 4.25507 4.28072 4.32108 4.3529 4.35293 4.3556 4.37646 
4.38412 4.39887 4.40609 4.40099 4.41934 4.42504 4.42418 4.39921 4.38505 
4.37738 4.37297 4.3703 4.38025 4.37682 4.3737 4.36821 4.36762 4.36537 
4.35518 4.35758 4.35758 4.35708 4.35732 4.37027 4.38297 4.38853 4.40814 
4.43203 4.46203 4.46949 4.49667 4.51103 4.53256 4.55475 4.55579 4.56997 
4.56993 4.55966 4.55966 4.55887 4.53995 4.52367 4.52361 4.51824 4.49765 
4.49002 4.45187 4.44613 4.24158 4.24137 4.21514 4.11921 4.03365 3.97076 
3.96276 3.94792 3.94745 3.93174 3.93076 3.91333 3.9094 3.90153 3.89708 
3.89396 3.89383 3.89811 3.89812 3.89877 3.90183 3.91206 3.91638 3.91605 
3.90828 3.90284 3.90145 3.8937 3.89363 3.89167 3.87215 3.86897 3.83462 
3.81859 3.78058 3.77964 3.76716 3.75821 3.75682 3.72536 3.72536 3.72476 
3.71636 3.75513 3.79908 3.80755 3.81765 3.82616 3.82643 3.86064 3.88993 
3.89005 3.89713 3.93007 4.00011 2.80875 2.761 2.73225 2.70225 2.62441 
2.57524 2.57232 2.5704 2.56617 2.49865 2.4955 2.43876 2.43861 2.42578 
2.406 2.35978 2.34702 2.28977 2.26971 2.21814 2.21152 2.19418 2.1738 
2.14989 2.1416 2.12651 2.12651 2.12616 2.11919 2.11736 2.12474 2.12474 
2.12537 2.13324 2.15335 2.16038 2.1614 2.20205 2.20261 2.21662 2.21872 
2.21991 2.24245 2.24599 2.25701 2.25854 2.2671 2.26758 2.26949 2.28898 
2.2954 2.32185 2.3403 2.34312 2.36441 2.37302 2.40814 2.42217 2.45302 
2.50237 2.51619 2.56916 2.5728 2.61589 2.64244 2.65955 2.74635 2.74669 
2.76327 2.76328 2.76625 2.77148 2.80158 2.81599 2.82671 2.83475 2.8371 
2.86897 2.90535 2.91242 2.92792 2.9353 2.95948 2.96083 2.9775 2.97756 
2.99184 3.00882 3.01172 3.02135 3.05475 3.061 3.06745 3.08478 3.11787 
3.12685 3.14336 3.14375 3.1438 3.15816 3.15823 3.16398 3.16627 3.1741 
3.17756 3.17966 3.17509 3.17086 3.16867 3.1678 3.15221 3.14603 3.13249 
3.12885 3.11472 3.09334 3.08812 3.08306 3.07537 3.07494 3.07377 3.06988 
3.0641 3.06352 3.06319 3.0611 3.05374 3.05646 3.06112 3.07319 3.07635 
3.08934 3.08968 3.09115 3.10775 3.1173 3.11929 3.13356 3.14887 3.14889 
3.15614 3.1562 3.16336 3.16385 3.18812 3.18856 3.22505 3.22527 3.25232 
3.25433 3.26633 3.31941 3.32862 3.33286 3.46412 3.46468 3.49219 3.53969 
3.55576 3.63364 3.70629 3.76097 3.78856 3.85166 3.85461 3.855 3.92036 
3.92086 3.95141 4.01314 4.01329 4.04881 4.05219 4.08493 4.09866 4.1422 
4.15371 4.18074 4.23033 4.2977 4.24812 4.18268 4.11921 4.03365 3.97076 
3.96276 3.94792 3.94745 3.93174 3.93076 3.91333 3.9094 3.90153 3.89708 
3.89396 3.89383 3.89811 3.89812 3.89877 3.90183 3.91206 3.91638 3.91605 
3.90828 3.90284 3.90145 3.8937 3.89363 3.89167 3.87215 3.86897 3.83462 
3.81859 3.78058 3.77964 3.76716 3.75821 3.75682 3.72536 3.72536 3.72476 
3.71636 3.75513 3.79908 3.80755 3.81765 3.82616 3.82643 3.86064 3.88993 
3.89005 3.89713 3.93007 4.00011 1.23239 1.23218 1.23117 1.22968 1.22546 
1.2225 1.21996 1.21432 1.21016 1.21232 1.21231 1.21096 1.10772 1.15092 
1.18616 1.19963 1.20628 1.20722 1.30579 1.29294 1.27708 1.29247 1.32864 
1.33941 1.33962 1.39046 1.39894 1.4585 1.46234 1.46364 1.5073 1.5154 
1.54696 1.56277 1.56355 1.57728 1.60265 1.76317 1.76399 1.83204 1.9272 
2.16539 2.35869 2.37214 2.47584 2.48883 2.50281 2.50503 2.63895 2.65826 
2.68239 2.77768 2.86991 2.92074 2.92925 3.01938 3.0228 3.08135 3.08135 
3.08138 3.12773 3.19997 3.23862 3.30902 3.36167 3.42924 3.50608 3.5164 
3.68176 3.69433 3.78337 3.84207 3.90098 4.00229 4.10444 4.13091 4.14921 
4.15236 4.24373 4.28271 4.29227 4.29977 4.30126 4.31865 4.32625 4.34482 
4.38177 4.41276 4.41531 4.41815 4.41816 4.41867 4.42011 4.42015 4.42254 
4.43964 4.43965 4.44027 4.4333 4.43333 4.42947 4.42324 4.39921 4.38505 
4.37738 4.37297 4.3703 4.38025 4.37682 4.3737 4.36821 4.36762 4.36537 
4.35518 4.35758 4.35758 4.35708 4.35732 4.37027 4.38297 4.38853 4.40814 
4.43203 4.46203 4.46949 4.49667 4.51103 4.53256 4.55475 4.55579 4.56997 
4.56993 4.55966 4.55966 4.55887 4.53995 4.52367 4.52361 4.51824 4.49765 
4.49002 4.45187 4.44613 4.24158 4.24137 4.21514 4.11921 4.03365 3.97076 
3.96276 3.94792 3.94745 3.93174 3.93076 3.91333 3.9094 3.90153 3.89708 
3.89396 3.89383 3.89811 3.89812 3.89877 3.90183 3.91206 3.91638 3.91605 
3.90828 3.90284 3.90145 3.8937 3.89363 3.89167 3.87215 3.86897 3.83462 
3.81859 3.78058 3.77964 3.76716 3.75821 3.75682 3.72536 3.72536 3.72476 
3.71636 3.75513 3.79908 3.80755 3.81765 3.82616 3.82643 3.86064 3.88993 
3.89005 3.89713 3.93007 4.00011 
EdgeArray 2 1588 int
78530 78530 7359 78503 78450 69622 78243 78559 78437 
78437 9802 9802 46618 15682 2821 2821 44929 44929 
46622 46622 40352 46239 46247 46611 1871 1871 42863 
54123 45911 45911 45481 45911 45481 45481 46171 46171 
46162 46162 46163 46162 46163 46163 42928 42928 43465 
44499 43385 43385 44018 44018 44658 44658 44019 43649 
44657 44022 43576 44022 43576 43646 44351 44350 44352 
44350 44348 44349 40379 30707 42925 9609 42010 51 
45491 42010 3022 45491 44570 1076 1076 40487 40487 
40487 42229 40487 42229 42229 42235 42235 41361 41361 
10053 42009 57758 42387 44863 42239 765 51775 50602 
52567 48935 50600 43233 43233 40486 56413 43228 56412 
54848 45089 45089 64310 51617 51617 50017 50017 45101 
63990 53603 53603 53601 51625 62001 62001 38822 62001 
38822 38822 56963 56963 64147 56021 64147 64151 56020 
56020 56928 56928 62721 62721 57475 57475 57474 57467 
57457 57457 68331 68331 63577 63577 48207 48207 56752 
48208 67268 67268 69365 69365 66926 66926 42419 2594 
2594 45539 44181 45544 45543 45542 45543 52196 64506 
6433 64506 69819 21887 21887 57522 57522 57526 57526 
57527 57527 41578 57182 57176 57176 53562 46197 53766 
53766 53767 53768 53769 53768 41952 41952 41948 41948 
10619 10619 45794 45794 45824 49575 56408 56408 46154 
45760 63132 63131 62858 46947 42906 57762 15101 15101 
26644 52894 46156 42504 42751 42767 43330 42767 42759 
43330 47007 47007 45420 45420 43194 43194 62572 16031 
42107 62578 43413 62578 57630 43413 57630 57630 57059 
57059 45159 45159 45156 45156 45719 46553 46553 46553 
43043 43043 45154 45154 32956 32956 44640 44640 46856 
43175 43175 43175 44645 44644 44643 44645 44643 44643 
4322 44643 4322 4322 46261 4322 46261 46261 69630 
69630 69628 69628 52646 69628 52646 52646 43251 43251 
45149 43251 45149 45149 52649 45937 52649 52649 52650 
33564 33564 13462 23273 45248 33447 33447 15465 15465 
45333 45333 33044 33044 41911 60 41604 41604 41886 
41886 46087 46087 74271 74270 74263 74273 42493 3237 
51760 46086 41595 30821 56440 56440 35845 35845 10744 
10744 41757 32916 32916 33068 22275 41592 22275 43085 
43085 30408 72481 72481 27579 3005 23155 14475 31492 
31492 17014 31492 17014 17014 73826 12106 12106 21769 
46387 42715 30506 30506 32585 27717 32585 17069 17069 
56462 75455 34684 34684 8602 8602 8602 75454 66889 
66889 66889 67770 26166 20490 26166 20490 20437 20437 
53874 53874 9022 9022 29316 35420 35420 71125 29330 
41598 67768 29327 67768 71127 29327 71127 71127 30880 
29182 30880 39517 39517 39517 75636 75411 75637 75637 
33046 38348 30701 30701 71798 71798 65089 65089 25092 
25092 73251 73251 73256 73253 73254 73254 75737 75737 
31350 75702 75702 75742 23055 75742 23055 68887 28739 
68887 53323 53323 37705 37705 32852 73912 32852 46976 
46976 46976 37703 37703 30318 30318 32849 30318 32849 
32849 18555 18555 30312 8702 54682 8702 21325 21325 
28588 34632 50533 50533 65242 65242 28533 14053 73135 
73135 73133 73133 18635 18635 72702 72702 41629 41629 
54684 54684 76528 54684 76528 76528 72404 72404 71627 
71627 70185 71627 70185 70185 70187 70187 70184 17867 
66287 66287 19514 19514 26414 26414 5277 5277 32846 
27461 5153 5153 11605 5153 11605 11605 36702 36702 
36705 37241 36699 36699 36676 36675 48343 48343 43817 
48343 43817 43817 66607 66607 45767 45767 23073 50647 
50647 50644 50644 50644 64179 50646 72690 72690 55149 
72690 55149 55149 55144 55144 47175 47175 13336 13336 
28355 46785 66303 28355 33828 33828 60974 60974 68503 
68503 68502 68502 60975 60975 45082 45082 64196 64196 
64197 28131 61572 11405 54627 54627 29661 29661 58631 
2964 58290 2964 50584 18387 33826 58095 58287 64568 
64568 18386 32421 18390 58293 32421 31716 58293 63469 
24873 22486 22486 69116 69117 69116 69112 69112 65889 
58088 58088 65900 65903 59538 65970 59540 59538 59540 
59540 16292 16292 76255 76255 26355 26355 63884 63884 
63881 63881 61784 61784 65824 65824 35003 35003 54924 
35003 54924 54924 63883 63883 72120 54742 24443 24443 
48063 48063 47366 47366 61599 61599 61609 61609 66788 
64838 58067 58067 74923 74923 73976 73976 70356 70356 
67803 70356 67803 67803 29644 29644 67800 67802 67800 
67300 65521 67303 67099 67303 67099 67099 65520 65279 
50451 65279 50451 50451 67436 67436 75076 75076 75075 
13214 62115 7372 63489 63489 62130 62130 62254 62254 
66051 66051 62120 62120 19717 62120 19717 19717 72274 
72274 35397 47637 19358 19358 76626 76627 57267 57267 
36468 36468 36653 36653 19300 48536 63112 63112 51165 
71730 58448 58448 17258 61386 47279 51887 25904 47279 
56998 64075 49946 49948 68229 49948 56629 68229 56629 
65816 50841 73861 49943 54001 65774 65774 76497 71757 
76497 76497 71761 71761 55103 65773 55103 73456 67568 
73449 73449 73448 73448 73448 74198 74198 74195 74194 
74192 74191 67975 63834 63834 63834 35492 61546 59855 
61812 66568 66568 66074 66074 68241 66074 68241 68241 
47648 47648 67212 47123 48888 49620 49620 47133 62402 
62401 62401 62400 55257 56160 55257 55258 50364 50364 
44855 50364 44855 44855 62427 62427 55249 62426 55249 
27063 41461 41461 22554 22554 36993 49601 19217 19217 
61508 61508 47253 47253 66262 66262 61292 61292 68093 
61292 68093 68093 59577 59577 64665 61464 61461 61464 
61462 61462 59551 59551 58267 58267 58528 58528 59085 
59085 58201 58201 59399 59399 60263 59400 59400 1944 
1944 49829 47255 49829 58279 47255 59666 58279 59666 
54803 69589 69589 69591 71612 71614 71614 71617 58402 
68344 71617 68131 68131 59829 54794 59832 54794 59833 
41345 60889 60889 54765 54765 48578 48578 72649 73538 
43675 73538 38456 38456 66893 61368 47597 61367 70462 
47597 76486 76486 76299 76299 76364 76367 75504 76367 
49458 49458 51861 51861 57404 67652 61675 57404 61675 
54521 73237 32145 50934 72475 66548 50931 62525 66548 
62525 62525 60812 60812 73794 50933 75530 76811 76689 
75530 75535 75535 43105 47094 45691 43105 45691 45691 
37781 37780 37782 37780 66762 37782 66762 66762 54225 
66762 54225 54225 45692 45692 62808 62808 35597 65496 
74162 19581 74162 33357 69017 68398 66339 73887 66339 
49035 45551 45551 66835 74535 66837 66835 66837 52963 
68200 50304 26316 69016 9069 69016 9069 42966 49097 
50300 50300 6769 48709 54515 54515 52492 55866 48687 
14755 48687 60056 60056 59654 59654 59659 75418 60291 
60291 49150 49150 15368 15368 13789 13789 24767 24767 
53613 24767 53613 53613 56885 56885 35544 35544 53311 
48737 31168 48737 31168 31168 24809 24809 49044 24809 
49044 49044 55397 55397 49961 49961 68059 68059 7580 
7580 48752 48752 50471 50471 55058 55058 55059 55059 
31551 31551 49502 49504 49504 49505 48648 49509 49499 
49499 52469 52469 48575 48575 71462 71462 52692 55372 
52755 52692 52694 52684 52684 52691 52687 52687 52680 
5757 41292 41292 48801 48393 4358 49072 50623 50623 
49067 50622 49066 49066 49069 49190 10519 47224 62520 
50765 41300 62521 18427 54839 37023 18427 37150 37023 
64698 54842 69223 69223 66914 66914 64699 60109 35153 
35153 60124 60119 60546 60546 63179 48033 63182 63183 
63184 63183 60115 63184 49429 60115 49429 38284 34859 
62331 35576 18438 60808 60808 49445 49444 49424 49424 
48424 48426 32013 50832 32013 52305 52305 52305 37401 
52305 37401 37401 35843 22312 23460 35331 23460 36915 
36915 31476 14258 47703 25076 25076 31480 31480 34998 